REMARK VINA RESULT:    -7.111      0.000      0.000
REMARK INTER + INTRA:          -9.481
REMARK INTER:                  -8.358
REMARK INTRA:                  -1.124
REMARK UNBOUND:                -1.124
REMARK SMILES CN(C)c1ccc(C(=C2C=CC(=[N+](C)C)C=C2)c2ccccc2)cc1
REMARK SMILES IDX 4 1 5 2 6 3 7 4 24 5 25 6 2 7 1 8 3 9 8 10 9 11 10 12 17 13
REMARK SMILES IDX 11 14 16 15 12 16 13 17 14 18 15 19 18 20 19 21 23 22 20 23
REMARK SMILES IDX 22 24 21 25
REMARK H PARENT
ROOT
ATOM      1  C   UNL     1      16.473   2.398   2.212  1.00  0.00     0.036 A 
ATOM      2  C   UNL     1      17.240   1.346   2.747  1.00  0.00     0.026 A 
ATOM      3  C   UNL     1      18.589   1.501   3.098  1.00  0.00     0.011 A 
ATOM      4  C   UNL     1      19.228   2.725   2.910  1.00  0.00    -0.017 A 
ATOM      5  C   UNL     1      18.499   3.788   2.379  1.00  0.00     0.011 A 
ATOM      6  C   UNL     1      17.151   3.618   2.032  1.00  0.00     0.026 A 
ENDROOT
BRANCH   1   7
ATOM      7  N   UNL     1      15.134   2.228   1.839  1.00  0.00    -0.378 N 
ATOM      8  C   UNL     1      14.241   3.388   1.862  1.00  0.00     0.143 C 
ATOM      9  C   UNL     1      14.486   0.943   2.102  1.00  0.00     0.143 C 
ENDBRANCH   1   7
BRANCH   4  10
ATOM     10  C   UNL     1      20.665   2.890   3.254  1.00  0.00    -0.004 C 
ATOM     11  C   UNL     1      21.038   3.416   4.459  1.00  0.00    -0.017 C 
ATOM     12  C   UNL     1      20.050   3.834   5.457  1.00  0.00     0.015 C 
ATOM     13  C   UNL     1      22.447   3.591   4.822  1.00  0.00     0.015 C 
ATOM     14  C   UNL     1      20.394   4.352   6.645  1.00  0.00     0.079 C 
ATOM     15  C   UNL     1      22.833   4.104   5.999  1.00  0.00     0.079 C 
ATOM     16  C   UNL     1      21.831   4.537   7.029  1.00  0.00     0.199 C 
ATOM     17  N   UNL     1      22.186   5.037   8.178  1.00  0.00    -0.235 N 
ATOM     18  C   UNL     1      21.193   5.571   9.164  1.00  0.00     0.433 C 
ATOM     19  C   UNL     1      23.617   5.122   8.612  1.00  0.00     0.433 C 
BRANCH  10  20
ATOM     20  C   UNL     1      21.685   2.471   2.256  1.00  0.00    -0.017 A 
ATOM     21  C   UNL     1      21.921   3.252   1.116  1.00  0.00     0.009 A 
ATOM     22  C   UNL     1      22.416   1.291   2.445  1.00  0.00     0.009 A 
ATOM     23  C   UNL     1      22.883   2.861   0.184  1.00  0.00     0.001 A 
ATOM     24  C   UNL     1      23.377   0.903   1.510  1.00  0.00     0.001 A 
ATOM     25  C   UNL     1      23.611   1.689   0.382  1.00  0.00     0.000 A 
ENDBRANCH  10  20
ENDBRANCH   4  10
TORSDOF 3
