REMARK VINA RESULT:    -7.621      0.000      0.000
REMARK INTER + INTRA:         -10.166
REMARK INTER:                  -8.958
REMARK INTRA:                  -1.209
REMARK UNBOUND:                -1.209
REMARK SMILES CN(C)c1ccc(C(=C2C=CC(=[N+](C)C)C=C2)c2ccccc2)cc1
REMARK SMILES IDX 8 1 9 2 10 3 11 4 12 5 13 6 14 7 15 8 16 9 17 10 7 11 4 12
REMARK SMILES IDX 5 13 25 14 6 15 24 16 2 17 1 18 3 19 18 20 19 21 23 22 20 23
REMARK SMILES IDX 22 24 21 25
REMARK H PARENT
REMARK Flexibility Score: inf
ROOT
ATOM      1  C   UNL     1      28.348  -7.484 -20.588  1.00  0.00    -0.004 C 
ATOM      2  C   UNL     1      28.009  -6.686 -21.638  1.00  0.00    -0.017 C 
ATOM      3  C   UNL     1      28.985  -6.356 -22.708  1.00  0.00     0.015 C 
ATOM      4  C   UNL     1      28.655  -5.574 -23.739  1.00  0.00     0.079 C 
ATOM      5  C   UNL     1      27.288  -4.988 -23.871  1.00  0.00     0.199 C 
ATOM      6  N   UNL     1      26.958  -4.212 -24.891  1.00  0.00    -0.235 N 
ATOM      7  C   UNL     1      27.931  -3.887 -25.949  1.00  0.00     0.433 C 
ATOM      8  C   UNL     1      25.605  -3.640 -25.011  1.00  0.00     0.433 C 
ATOM      9  C   UNL     1      26.311  -5.322 -22.791  1.00  0.00     0.079 C 
ATOM     10  C   UNL     1      26.645  -6.106 -21.763  1.00  0.00     0.015 C 
ENDROOT
BRANCH   1  11
ATOM     11  C   UNL     1      29.751  -7.900 -20.341  1.00  0.00    -0.017 A 
ATOM     12  C   UNL     1      32.399  -8.737 -19.803  1.00  0.00     0.036 A 
ATOM     13  C   UNL     1      31.932  -7.482 -19.359  1.00  0.00     0.026 A 
ATOM     14  C   UNL     1      31.506  -9.569 -20.512  1.00  0.00     0.026 A 
ATOM     15  C   UNL     1      30.623  -7.074 -19.620  1.00  0.00     0.011 A 
ATOM     16  C   UNL     1      30.197  -9.156 -20.772  1.00  0.00     0.011 A 
BRANCH  12  17
ATOM     17  N   UNL     1      33.760  -9.164 -19.533  1.00  0.00    -0.378 N 
ATOM     18  C   UNL     1      34.846  -8.180 -19.434  1.00  0.00     0.143 C 
ATOM     19  C   UNL     1      34.075 -10.587 -19.354  1.00  0.00     0.143 C 
ENDBRANCH  12  17
ENDBRANCH   1  11
BRANCH   1  20
ATOM     20  C   UNL     1      27.336  -7.988 -19.626  1.00  0.00    -0.017 A 
ATOM     21  C   UNL     1      26.418  -8.981 -20.011  1.00  0.00     0.009 A 
ATOM     22  C   UNL     1      27.332  -7.521 -18.302  1.00  0.00     0.009 A 
ATOM     23  C   UNL     1      25.491  -9.476 -19.089  1.00  0.00     0.001 A 
ATOM     24  C   UNL     1      26.403  -8.020 -17.384  1.00  0.00     0.001 A 
ATOM     25  C   UNL     1      25.481  -8.994 -17.777  1.00  0.00     0.000 A 
ENDBRANCH   1  20
TORSDOF 3
