REMARK VINA RESULT:    -6.765      0.000      0.000
REMARK INTER + INTRA:          -8.712
REMARK INTER:                  -7.951
REMARK INTRA:                  -0.761
REMARK UNBOUND:                -0.761
REMARK SMILES CN(C)c1ccc(C(=C2C=CC(=[N+](C)C)C=C2)c2ccccc2)cc1
REMARK SMILES IDX 4 1 5 2 6 3 7 4 24 5 25 6 2 7 1 8 3 9 8 10 9 11 10 12 17 13
REMARK SMILES IDX 11 14 16 15 12 16 13 17 14 18 15 19 18 20 19 21 23 22 20 23
REMARK SMILES IDX 22 24 21 25
REMARK H PARENT
ROOT
ATOM      1  C   UNL     1      27.483 -46.856  54.757  1.00  0.00     0.036 A 
ATOM      2  C   UNL     1      26.274 -47.260  55.355  1.00  0.00     0.026 A 
ATOM      3  C   UNL     1      25.103 -47.473  54.614  1.00  0.00     0.011 A 
ATOM      4  C   UNL     1      25.097 -47.274  53.234  1.00  0.00    -0.017 A 
ATOM      5  C   UNL     1      26.276 -46.870  52.610  1.00  0.00     0.011 A 
ATOM      6  C   UNL     1      27.440 -46.660  53.364  1.00  0.00     0.026 A 
ENDROOT
BRANCH   1   7
ATOM      7  N   UNL     1      28.641 -46.619  55.507  1.00  0.00    -0.378 N 
ATOM      8  C   UNL     1      28.706 -45.423  56.348  1.00  0.00     0.143 C 
ATOM      9  C   UNL     1      29.928 -47.077  54.981  1.00  0.00     0.143 C 
ENDBRANCH   1   7
BRANCH   4  10
ATOM     10  C   UNL     1      23.853 -47.472  52.445  1.00  0.00    -0.004 C 
ATOM     11  C   UNL     1      23.030 -46.417  52.164  1.00  0.00    -0.017 C 
ATOM     12  C   UNL     1      23.335 -45.058  52.620  1.00  0.00     0.015 C 
ATOM     13  C   UNL     1      21.797 -46.585  51.390  1.00  0.00     0.015 C 
ATOM     14  C   UNL     1      22.542 -44.010  52.356  1.00  0.00     0.079 C 
ATOM     15  C   UNL     1      20.978 -45.563  51.103  1.00  0.00     0.079 C 
ATOM     16  C   UNL     1      21.278 -44.167  51.565  1.00  0.00     0.199 C 
ATOM     17  N   UNL     1      20.494 -43.161  51.296  1.00  0.00    -0.235 N 
ATOM     18  C   UNL     1      20.731 -41.789  51.846  1.00  0.00     0.433 C 
ATOM     19  C   UNL     1      19.290 -43.291  50.416  1.00  0.00     0.433 C 
BRANCH  10  20
ATOM     20  C   UNL     1      23.524 -48.842  51.971  1.00  0.00    -0.017 A 
ATOM     21  C   UNL     1      22.286 -49.420  52.283  1.00  0.00     0.009 A 
ATOM     22  C   UNL     1      24.451 -49.568  51.212  1.00  0.00     0.009 A 
ATOM     23  C   UNL     1      21.977 -50.704  51.832  1.00  0.00     0.001 A 
ATOM     24  C   UNL     1      24.139 -50.853  50.763  1.00  0.00     0.001 A 
ATOM     25  C   UNL     1      22.902 -51.418  51.072  1.00  0.00     0.000 A 
ENDBRANCH  10  20
ENDBRANCH   4  10
TORSDOF 3
