REMARK minimizedAffinity -5.70069981
REMARK minimizedRMSD -1
REMARK SMILES CN(C)c1ccc(C(=C2C=CC(=[N+](C)C)C=C2)c2ccccc2)cc1
REMARK SMILES IDX 4 1 5 2 6 3 7 4 24 5 25 6 2 7 1 8 3 9 8 10 9 11 10 12 17 13
REMARK SMILES IDX 11 14 16 15 12 16 13 17 14 18 15 19 18 20 19 21 23 22 20 23
REMARK SMILES IDX 22 24 21 25
REMARK H PARENT
ROOT
ATOM      1  C   UNL     1      21.845 -60.423  51.294  1.00  0.00     0.036 A 
ATOM      2  C   UNL     1      21.070 -59.249  51.244  1.00  0.00     0.026 A 
ATOM      3  C   UNL     1      21.471 -58.057  51.865  1.00  0.00     0.011 A 
ATOM      4  C   UNL     1      22.668 -58.002  52.576  1.00  0.00    -0.017 A 
ATOM      5  C   UNL     1      23.458 -59.147  52.648  1.00  0.00     0.011 A 
ATOM      6  C   UNL     1      23.045 -60.333  52.023  1.00  0.00     0.026 A 
ENDROOT
BRANCH   1   7
ATOM      7  N   UNL     1      21.426 -61.618  50.696  1.00  0.00    -0.378 N 
ATOM      8  C   UNL     1      20.075 -61.692  50.135  1.00  0.00     0.143 C 
ATOM      9  C   UNL     1      21.957 -62.884  51.201  1.00  0.00     0.143 C 
ENDBRANCH   1   7
BRANCH   4  10
ATOM     10  C   UNL     1      23.087 -56.749  53.258  1.00  0.00    -0.004 C 
ATOM     11  C   UNL     1      22.579 -56.420  54.484  1.00  0.00    -0.017 C 
ATOM     12  C   UNL     1      21.612 -57.277  55.174  1.00  0.00     0.015 C 
ATOM     13  C   UNL     1      22.974 -55.191  55.178  1.00  0.00     0.015 C 
ATOM     14  C   UNL     1      21.101 -56.973  56.376  1.00  0.00     0.079 C 
ATOM     15  C   UNL     1      22.488 -54.851  56.380  1.00  0.00     0.079 C 
ATOM     16  C   UNL     1      21.496 -55.719  57.097  1.00  0.00     0.199 C 
ATOM     17  N   UNL     1      21.012 -55.405  58.265  1.00  0.00    -0.235 N 
ATOM     18  C   UNL     1      19.942 -56.211  58.935  1.00  0.00     0.433 C 
ATOM     19  C   UNL     1      21.484 -54.213  59.039  1.00  0.00     0.433 C 
BRANCH  10  20
ATOM     20  C   UNL     1      24.069 -55.864  52.577  1.00  0.00    -0.017 A 
ATOM     21  C   UNL     1      25.440 -56.144  52.649  1.00  0.00     0.009 A 
ATOM     22  C   UNL     1      23.631 -54.743  51.861  1.00  0.00     0.009 A 
ATOM     23  C   UNL     1      26.360 -55.316  52.004  1.00  0.00     0.001 A 
ATOM     24  C   UNL     1      24.554 -53.917  51.217  1.00  0.00     0.001 A 
ATOM     25  C   UNL     1      25.917 -54.205  51.288  1.00  0.00     0.000 A 
ENDBRANCH  10  20
ENDBRANCH   4  10
TORSDOF 3
