MODEL 1
REMARK minimizedAffinity -6.19471359
REMARK minimizedRMSD -1
REMARK SMILES CN(C)c1ccc(C(=C2C=CC(=[N+](C)C)C=C2)c2ccccc2)cc1
REMARK SMILES IDX 4 1 5 2 6 3 7 4 24 5 25 6 2 7 1 8 3 9 8 10 9 11 10 12 17 13
REMARK SMILES IDX 11 14 16 15 12 16 13 17 14 18 15 19 18 20 19 21 23 22 20 23
REMARK SMILES IDX 22 24 21 25
REMARK H PARENT
ROOT
ATOM      1  C   UNL     1      17.714   2.778   1.118  1.00  0.00     0.036 A 
ATOM      2  C   UNL     1      16.418   3.310   1.246  1.00  0.00     0.026 A 
ATOM      3  C   UNL     1      15.423   2.691   2.017  1.00  0.00     0.011 A 
ATOM      4  C   UNL     1      15.691   1.496   2.682  1.00  0.00    -0.017 A 
ATOM      5  C   UNL     1      16.964   0.939   2.573  1.00  0.00     0.011 A 
ATOM      6  C   UNL     1      17.949   1.569   1.798  1.00  0.00     0.026 A 
ENDROOT
BRANCH   1   7
ATOM      7  N   UNL     1      18.694   3.388   0.325  1.00  0.00    -0.378 N 
ATOM      8  C   UNL     1      19.913   2.642   0.008  1.00  0.00     0.143 C 
ATOM      9  C   UNL     1      18.859   4.840   0.399  1.00  0.00     0.143 C 
ENDBRANCH   1   7
BRANCH   4  10
ATOM     10  C   UNL     1      14.634   0.819   3.479  1.00  0.00    -0.004 C 
ATOM     11  C   UNL     1      14.643   0.881   4.845  1.00  0.00    -0.017 C 
ATOM     12  C   UNL     1      15.681   1.612   5.577  1.00  0.00     0.015 C 
ATOM     13  C   UNL     1      13.615   0.221   5.653  1.00  0.00     0.015 C 
ATOM     14  C   UNL     1      15.708   1.685   6.915  1.00  0.00     0.079 C 
ATOM     15  C   UNL     1      13.605   0.271   6.993  1.00  0.00     0.079 C 
ATOM     16  C   UNL     1      14.663   1.015   7.755  1.00  0.00     0.199 C 
ATOM     17  N   UNL     1      14.671   1.075   9.056  1.00  0.00    -0.235 N 
ATOM     18  C   UNL     1      15.782   1.722   9.824  1.00  0.00     0.433 C 
ATOM     19  C   UNL     1      13.571   0.502   9.896  1.00  0.00     0.433 C 
BRANCH  10  20
ATOM     20  C   UNL     1      13.570   0.072   2.756  1.00  0.00    -0.017 A 
ATOM     21  C   UNL     1      12.405   0.730   2.340  1.00  0.00     0.009 A 
ATOM     22  C   UNL     1      13.722  -1.295   2.489  1.00  0.00     0.009 A 
ATOM     23  C   UNL     1      11.410   0.030   1.656  1.00  0.00     0.001 A 
ATOM     24  C   UNL     1      12.725  -1.992   1.806  1.00  0.00     0.001 A 
ATOM     25  C   UNL     1      11.571  -1.329   1.389  1.00  0.00     0.000 A 
ENDBRANCH  10  20
ENDBRANCH   4  10
TORSDOF 3
ENDMDL
MODEL 2
REMARK minimizedAffinity -5.74838209
REMARK minimizedRMSD -1
REMARK SMILES CN(C)c1ccc(C(=C2C=CC(=[N+](C)C)C=C2)c2ccccc2)cc1
REMARK SMILES IDX 4 1 5 2 6 3 7 4 24 5 25 6 2 7 1 8 3 9 8 10 9 11 10 12 17 13
REMARK SMILES IDX 11 14 16 15 12 16 13 17 14 18 15 19 18 20 19 21 23 22 20 23
REMARK SMILES IDX 22 24 21 25
REMARK H PARENT
ROOT
ATOM      1  C   UNL     1      17.318   7.929   8.199  1.00  0.00     0.036 A 
ATOM      2  C   UNL     1      16.931   7.240   7.034  1.00  0.00     0.026 A 
ATOM      3  C   UNL     1      17.674   6.173   6.510  1.00  0.00     0.011 A 
ATOM      4  C   UNL     1      18.851   5.762   7.132  1.00  0.00    -0.017 A 
ATOM      5  C   UNL     1      19.266   6.424   8.286  1.00  0.00     0.011 A 
ATOM      6  C   UNL     1      18.513   7.491   8.799  1.00  0.00     0.026 A 
ENDROOT
BRANCH   1   7
ATOM      7  N   UNL     1      16.587   9.012   8.702  1.00  0.00    -0.378 N 
ATOM      8  C   UNL     1      15.740   9.779   7.787  1.00  0.00     0.143 C 
ATOM      9  C   UNL     1      17.135   9.774   9.824  1.00  0.00     0.143 C 
ENDBRANCH   1   7
BRANCH   4  10
ATOM     10  C   UNL     1      19.658   4.649   6.567  1.00  0.00    -0.004 C 
ATOM     11  C   UNL     1      19.544   3.381   7.066  1.00  0.00    -0.017 C 
ATOM     12  C   UNL     1      18.630   3.065   8.166  1.00  0.00     0.015 C 
ATOM     13  C   UNL     1      20.329   2.267   6.528  1.00  0.00     0.015 C 
ATOM     14  C   UNL     1      18.503   1.829   8.671  1.00  0.00     0.079 C 
ATOM     15  C   UNL     1      20.231   1.017   7.004  1.00  0.00     0.079 C 
ATOM     16  C   UNL     1      19.300   0.680   8.131  1.00  0.00     0.199 C 
ATOM     17  N   UNL     1      19.191  -0.528   8.606  1.00  0.00    -0.235 N 
ATOM     18  C   UNL     1      18.346  -0.849   9.800  1.00  0.00     0.433 C 
ATOM     19  C   UNL     1      19.900  -1.700   8.000  1.00  0.00     0.433 C 
BRANCH  10  20
ATOM     20  C   UNL     1      20.592   4.947   5.449  1.00  0.00    -0.017 A 
ATOM     21  C   UNL     1      21.976   4.826   5.633  1.00  0.00     0.009 A 
ATOM     22  C   UNL     1      20.096   5.354   4.203  1.00  0.00     0.009 A 
ATOM     23  C   UNL     1      22.851   5.100   4.580  1.00  0.00     0.001 A 
ATOM     24  C   UNL     1      20.974   5.628   3.154  1.00  0.00     0.001 A 
ATOM     25  C   UNL     1      22.349   5.499   3.342  1.00  0.00     0.000 A 
ENDBRANCH  10  20
ENDBRANCH   4  10
TORSDOF 3
ENDMDL
MODEL 3
REMARK minimizedAffinity -5.65920401
REMARK minimizedRMSD -1
REMARK SMILES CN(C)c1ccc(C(=C2C=CC(=[N+](C)C)C=C2)c2ccccc2)cc1
REMARK SMILES IDX 4 1 5 2 6 3 7 4 24 5 25 6 2 7 1 8 3 9 8 10 9 11 10 12 17 13
REMARK SMILES IDX 11 14 16 15 12 16 13 17 14 18 15 19 18 20 19 21 23 22 20 23
REMARK SMILES IDX 22 24 21 25
REMARK H PARENT
ROOT
ATOM      1  C   UNL     1      13.384   0.631   2.831  1.00  0.00     0.036 A 
ATOM      2  C   UNL     1      14.372   1.058   3.737  1.00  0.00     0.026 A 
ATOM      3  C   UNL     1      15.418   1.913   3.362  1.00  0.00     0.011 A 
ATOM      4  C   UNL     1      15.521   2.364   2.048  1.00  0.00    -0.017 A 
ATOM      5  C   UNL     1      14.561   1.958   1.122  1.00  0.00     0.011 A 
ATOM      6  C   UNL     1      13.520   1.102   1.512  1.00  0.00     0.026 A 
ENDROOT
BRANCH   1   7
ATOM      7  N   UNL     1      12.357  -0.244   3.206  1.00  0.00    -0.378 N 
ATOM      8  C   UNL     1      12.426  -0.895   4.515  1.00  0.00     0.143 C 
ATOM      9  C   UNL     1      11.672  -1.015   2.167  1.00  0.00     0.143 C 
ENDBRANCH   1   7
BRANCH   4  10
ATOM     10  C   UNL     1      16.642   3.249   1.635  1.00  0.00    -0.004 C 
ATOM     11  C   UNL     1      16.497   4.609   1.644  1.00  0.00    -0.017 C 
ATOM     12  C   UNL     1      15.245   5.248   2.057  1.00  0.00     0.015 C 
ATOM     13  C   UNL     1      17.586   5.503   1.240  1.00  0.00     0.015 C 
ATOM     14  C   UNL     1      15.082   6.579   2.072  1.00  0.00     0.079 C 
ATOM     15  C   UNL     1      17.464   6.838   1.243  1.00  0.00     0.079 C 
ATOM     16  C   UNL     1      16.187   7.505   1.662  1.00  0.00     0.199 C 
ATOM     17  N   UNL     1      16.049   8.801   1.671  1.00  0.00    -0.235 N 
ATOM     18  C   UNL     1      14.746   9.468   1.983  1.00  0.00     0.433 C 
ATOM     19  C   UNL     1      17.181   9.734   1.369  1.00  0.00     0.433 C 
BRANCH  10  20
ATOM     20  C   UNL     1      17.922   2.621   1.213  1.00  0.00    -0.017 A 
ATOM     21  C   UNL     1      18.390   1.468   1.859  1.00  0.00     0.009 A 
ATOM     22  C   UNL     1      18.673   3.178   0.170  1.00  0.00     0.009 A 
ATOM     23  C   UNL     1      19.588   0.876   1.458  1.00  0.00     0.001 A 
ATOM     24  C   UNL     1      19.871   2.584  -0.228  1.00  0.00     0.001 A 
ATOM     25  C   UNL     1      20.327   1.433   0.414  1.00  0.00     0.000 A 
ENDBRANCH  10  20
ENDBRANCH   4  10
TORSDOF 3
ENDMDL
MODEL 4
REMARK minimizedAffinity -5.54960632
REMARK minimizedRMSD -1
REMARK SMILES CN(C)c1ccc(C(=C2C=CC(=[N+](C)C)C=C2)c2ccccc2)cc1
REMARK SMILES IDX 4 1 5 2 6 3 7 4 24 5 25 6 2 7 1 8 3 9 8 10 9 11 10 12 17 13
REMARK SMILES IDX 11 14 16 15 12 16 13 17 14 18 15 19 18 20 19 21 23 22 20 23
REMARK SMILES IDX 22 24 21 25
REMARK H PARENT
ROOT
ATOM      1  C   UNL     1      19.056   0.052   8.221  1.00  0.00     0.036 A 
ATOM      2  C   UNL     1      18.532   1.297   8.614  1.00  0.00     0.026 A 
ATOM      3  C   UNL     1      19.009   2.511   8.098  1.00  0.00     0.011 A 
ATOM      4  C   UNL     1      20.049   2.520   7.170  1.00  0.00    -0.017 A 
ATOM      5  C   UNL     1      20.594   1.304   6.761  1.00  0.00     0.011 A 
ATOM      6  C   UNL     1      20.106   0.098   7.287  1.00  0.00     0.026 A 
ENDROOT
BRANCH   1   7
ATOM      7  N   UNL     1      18.593  -1.154   8.761  1.00  0.00    -0.378 N 
ATOM      8  C   UNL     1      17.331  -1.158   9.504  1.00  0.00     0.143 C 
ATOM      9  C   UNL     1      19.569  -2.155   9.194  1.00  0.00     0.143 C 
ENDBRANCH   1   7
BRANCH   4  10
ATOM     10  C   UNL     1      20.579   3.803   6.638  1.00  0.00    -0.004 C 
ATOM     11  C   UNL     1      20.279   4.209   5.367  1.00  0.00    -0.017 C 
ATOM     12  C   UNL     1      19.430   3.407   4.482  1.00  0.00     0.015 C 
ATOM     13  C   UNL     1      20.790   5.468   4.819  1.00  0.00     0.015 C 
ATOM     14  C   UNL     1      19.125   3.786   3.233  1.00  0.00     0.079 C 
ATOM     15  C   UNL     1      20.507   5.883   3.575  1.00  0.00     0.079 C 
ATOM     16  C   UNL     1      19.640   5.071   2.659  1.00  0.00     0.199 C 
ATOM     17  N   UNL     1      19.354   5.457   1.448  1.00  0.00    -0.235 N 
ATOM     18  C   UNL     1      18.581   4.601   0.493  1.00  0.00     0.433 C 
ATOM     19  C   UNL     1      19.774   6.789   0.907  1.00  0.00     0.433 C 
BRANCH  10  20
ATOM     20  C   UNL     1      21.442   4.634   7.520  1.00  0.00    -0.017 A 
ATOM     21  C   UNL     1      22.816   4.375   7.609  1.00  0.00     0.009 A 
ATOM     22  C   UNL     1      20.887   5.678   8.272  1.00  0.00     0.009 A 
ATOM     23  C   UNL     1      23.626   5.160   8.432  1.00  0.00     0.001 A 
ATOM     24  C   UNL     1      21.700   6.459   9.094  1.00  0.00     0.001 A 
ATOM     25  C   UNL     1      23.068   6.201   9.172  1.00  0.00     0.000 A 
ENDBRANCH  10  20
ENDBRANCH   4  10
TORSDOF 3
ENDMDL
MODEL 5
REMARK minimizedAffinity -5.46244192
REMARK minimizedRMSD -1
REMARK SMILES CN(C)c1ccc(C(=C2C=CC(=[N+](C)C)C=C2)c2ccccc2)cc1
REMARK SMILES IDX 4 1 5 2 6 3 7 4 24 5 25 6 2 7 1 8 3 9 8 10 9 11 10 12 17 13
REMARK SMILES IDX 11 14 16 15 12 16 13 17 14 18 15 19 18 20 19 21 23 22 20 23
REMARK SMILES IDX 22 24 21 25
REMARK H PARENT
ROOT
ATOM      1  C   UNL     1      21.481   5.682   8.576  1.00  0.00     0.036 A 
ATOM      2  C   UNL     1      21.916   4.813   7.559  1.00  0.00     0.026 A 
ATOM      3  C   UNL     1      21.137   3.739   7.103  1.00  0.00     0.011 A 
ATOM      4  C   UNL     1      19.887   3.488   7.666  1.00  0.00    -0.017 A 
ATOM      5  C   UNL     1      19.427   4.327   8.678  1.00  0.00     0.011 A 
ATOM      6  C   UNL     1      20.217   5.397   9.125  1.00  0.00     0.026 A 
ENDROOT
BRANCH   1   7
ATOM      7  N   UNL     1      22.275   6.736   9.045  1.00  0.00    -0.378 N 
ATOM      8  C   UNL     1      23.626   6.443   9.525  1.00  0.00     0.143 C 
ATOM      9  C   UNL     1      21.624   7.879   9.687  1.00  0.00     0.143 C 
ENDBRANCH   1   7
BRANCH   4  10
ATOM     10  C   UNL     1      19.067   2.336   7.207  1.00  0.00    -0.004 C 
ATOM     11  C   UNL     1      18.161   2.484   6.194  1.00  0.00    -0.017 C 
ATOM     12  C   UNL     1      17.961   3.770   5.521  1.00  0.00     0.015 C 
ATOM     13  C   UNL     1      17.340   1.365   5.724  1.00  0.00     0.015 C 
ATOM     14  C   UNL     1      17.078   3.937   4.526  1.00  0.00     0.079 C 
ATOM     15  C   UNL     1      16.446   1.490   4.732  1.00  0.00     0.079 C 
ATOM     16  C   UNL     1      16.230   2.801   4.036  1.00  0.00     0.199 C 
ATOM     17  N   UNL     1      15.367   2.943   3.070  1.00  0.00    -0.235 N 
ATOM     18  C   UNL     1      15.070   4.271   2.446  1.00  0.00     0.433 C 
ATOM     19  C   UNL     1      14.599   1.790   2.501  1.00  0.00     0.433 C 
BRANCH  10  20
ATOM     20  C   UNL     1      19.256   1.021   7.876  1.00  0.00    -0.017 A 
ATOM     21  C   UNL     1      18.631   0.756   9.102  1.00  0.00     0.009 A 
ATOM     22  C   UNL     1      20.062   0.038   7.287  1.00  0.00     0.009 A 
ATOM     23  C   UNL     1      18.803  -0.481   9.725  1.00  0.00     0.001 A 
ATOM     24  C   UNL     1      20.233  -1.198   7.914  1.00  0.00     0.001 A 
ATOM     25  C   UNL     1      19.602  -1.457   9.130  1.00  0.00     0.000 A 
ENDBRANCH  10  20
ENDBRANCH   4  10
TORSDOF 3
ENDMDL
MODEL 6
REMARK minimizedAffinity -5.42152166
REMARK minimizedRMSD -1
REMARK SMILES CN(C)c1ccc(C(=C2C=CC(=[N+](C)C)C=C2)c2ccccc2)cc1
REMARK SMILES IDX 4 1 5 2 6 3 7 4 24 5 25 6 2 7 1 8 3 9 8 10 9 11 10 12 17 13
REMARK SMILES IDX 11 14 16 15 12 16 13 17 14 18 15 19 18 20 19 21 23 22 20 23
REMARK SMILES IDX 22 24 21 25
REMARK H PARENT
ROOT
ATOM      1  C   UNL     1      20.878   5.540   4.256  1.00  0.00     0.036 A 
ATOM      2  C   UNL     1      19.542   5.503   3.815  1.00  0.00     0.026 A 
ATOM      3  C   UNL     1      18.457   5.629   4.694  1.00  0.00     0.011 A 
ATOM      4  C   UNL     1      18.673   5.784   6.062  1.00  0.00    -0.017 A 
ATOM      5  C   UNL     1      19.985   5.821   6.533  1.00  0.00     0.011 A 
ATOM      6  C   UNL     1      21.061   5.694   5.642  1.00  0.00     0.026 A 
ENDROOT
BRANCH   1   7
ATOM      7  N   UNL     1      21.957   5.387   3.376  1.00  0.00    -0.378 N 
ATOM      8  C   UNL     1      21.684   5.186   1.952  1.00  0.00     0.143 C 
ATOM      9  C   UNL     1      23.183   4.757   3.866  1.00  0.00     0.143 C 
ENDBRANCH   1   7
BRANCH   4  10
ATOM     10  C   UNL     1      17.528   5.891   7.004  1.00  0.00    -0.004 C 
ATOM     11  C   UNL     1      16.840   4.776   7.395  1.00  0.00    -0.017 C 
ATOM     12  C   UNL     1      17.197   3.440   6.910  1.00  0.00     0.015 C 
ATOM     13  C   UNL     1      15.706   4.855   8.320  1.00  0.00     0.015 C 
ATOM     14  C   UNL     1      16.535   2.335   7.280  1.00  0.00     0.079 C 
ATOM     15  C   UNL     1      15.019   3.773   8.715  1.00  0.00     0.079 C 
ATOM     16  C   UNL     1      15.374   2.400   8.226  1.00  0.00     0.199 C 
ATOM     17  N   UNL     1      14.718   1.337   8.599  1.00  0.00    -0.235 N 
ATOM     18  C   UNL     1      14.998  -0.020   8.031  1.00  0.00     0.433 C 
ATOM     19  C   UNL     1      13.630   1.381   9.627  1.00  0.00     0.433 C 
BRANCH  10  20
ATOM     20  C   UNL     1      17.149   7.238   7.508  1.00  0.00    -0.017 A 
ATOM     21  C   UNL     1      16.217   8.017   6.810  1.00  0.00     0.009 A 
ATOM     22  C   UNL     1      17.722   7.739   8.684  1.00  0.00     0.009 A 
ATOM     23  C   UNL     1      15.857   9.278   7.288  1.00  0.00     0.001 A 
ATOM     24  C   UNL     1      17.361   9.000   9.159  1.00  0.00     0.001 A 
ATOM     25  C   UNL     1      16.428   9.768   8.462  1.00  0.00     0.000 A 
ENDBRANCH  10  20
ENDBRANCH   4  10
TORSDOF 3
ENDMDL
MODEL 7
REMARK minimizedAffinity -5.27316284
REMARK minimizedRMSD -1
REMARK SMILES CN(C)c1ccc(C(=C2C=CC(=[N+](C)C)C=C2)c2ccccc2)cc1
REMARK SMILES IDX 4 1 5 2 6 3 7 4 24 5 25 6 2 7 1 8 3 9 8 10 9 11 10 12 17 13
REMARK SMILES IDX 11 14 16 15 12 16 13 17 14 18 15 19 18 20 19 21 23 22 20 23
REMARK SMILES IDX 22 24 21 25
REMARK H PARENT
ROOT
ATOM      1  C   UNL     1      13.773   7.676   2.734  1.00  0.00     0.036 A 
ATOM      2  C   UNL     1      13.727   7.069   1.465  1.00  0.00     0.026 A 
ATOM      3  C   UNL     1      14.178   5.760   1.241  1.00  0.00     0.011 A 
ATOM      4  C   UNL     1      14.709   5.010   2.288  1.00  0.00    -0.017 A 
ATOM      5  C   UNL     1      14.773   5.582   3.558  1.00  0.00     0.011 A 
ATOM      6  C   UNL     1      14.319   6.893   3.767  1.00  0.00     0.026 A 
ENDROOT
BRANCH   1   7
ATOM      7  N   UNL     1      13.346   8.993   2.944  1.00  0.00    -0.378 N 
ATOM      8  C   UNL     1      13.865  10.052   2.077  1.00  0.00     0.143 C 
ATOM      9  C   UNL     1      13.008   9.416   4.304  1.00  0.00     0.143 C 
ENDBRANCH   1   7
BRANCH   4  10
ATOM     10  C   UNL     1      15.214   3.632   2.053  1.00  0.00    -0.004 C 
ATOM     11  C   UNL     1      16.548   3.401   1.857  1.00  0.00    -0.017 C 
ATOM     12  C   UNL     1      17.529   4.490   1.870  1.00  0.00     0.015 C 
ATOM     13  C   UNL     1      17.071   2.053   1.621  1.00  0.00     0.015 C 
ATOM     14  C   UNL     1      18.839   4.286   1.678  1.00  0.00     0.079 C 
ATOM     15  C   UNL     1      18.374   1.807   1.427  1.00  0.00     0.079 C 
ATOM     16  C   UNL     1      19.389   2.912   1.437  1.00  0.00     0.199 C 
ATOM     17  N   UNL     1      20.659   2.693   1.249  1.00  0.00    -0.235 N 
ATOM     18  C   UNL     1      21.660   3.802   1.150  1.00  0.00     0.433 C 
ATOM     19  C   UNL     1      21.228   1.313   1.118  1.00  0.00     0.433 C 
BRANCH  10  20
ATOM     20  C   UNL     1      14.236   2.512   2.037  1.00  0.00    -0.017 A 
ATOM     21  C   UNL     1      13.514   2.222   0.872  1.00  0.00     0.009 A 
ATOM     22  C   UNL     1      14.026   1.740   3.187  1.00  0.00     0.009 A 
ATOM     23  C   UNL     1      12.601   1.166   0.856  1.00  0.00     0.001 A 
ATOM     24  C   UNL     1      13.112   0.686   3.168  1.00  0.00     0.001 A 
ATOM     25  C   UNL     1      12.402   0.399   2.003  1.00  0.00     0.000 A 
ENDBRANCH  10  20
ENDBRANCH   4  10
TORSDOF 3
ENDMDL
MODEL 8
REMARK minimizedAffinity -5.22133064
REMARK minimizedRMSD -1
REMARK SMILES CN(C)c1ccc(C(=C2C=CC(=[N+](C)C)C=C2)c2ccccc2)cc1
REMARK SMILES IDX 4 1 5 2 6 3 7 4 24 5 25 6 2 7 1 8 3 9 8 10 9 11 10 12 17 13
REMARK SMILES IDX 11 14 16 15 12 16 13 17 14 18 15 19 18 20 19 21 23 22 20 23
REMARK SMILES IDX 22 24 21 25
REMARK H PARENT
ROOT
ATOM      1  C   UNL     1      19.329  -1.250   9.074  1.00  0.00     0.036 A 
ATOM      2  C   UNL     1      19.994  -0.991   7.861  1.00  0.00     0.026 A 
ATOM      3  C   UNL     1      19.959   0.263   7.236  1.00  0.00     0.011 A 
ATOM      4  C   UNL     1      19.235   1.311   7.802  1.00  0.00    -0.017 A 
ATOM      5  C   UNL     1      18.561   1.089   9.001  1.00  0.00     0.011 A 
ATOM      6  C   UNL     1      18.605  -0.172   9.615  1.00  0.00     0.026 A 
ENDROOT
BRANCH   1   7
ATOM      7  N   UNL     1      19.347  -2.513   9.678  1.00  0.00    -0.378 N 
ATOM      8  C   UNL     1      20.637  -3.154   9.938  1.00  0.00     0.143 C 
ATOM      9  C   UNL     1      18.238  -3.433   9.423  1.00  0.00     0.143 C 
ENDBRANCH   1   7
BRANCH   4  10
ATOM     10  C   UNL     1      19.170   2.636   7.132  1.00  0.00    -0.004 C 
ATOM     11  C   UNL     1      18.273   2.866   6.125  1.00  0.00    -0.017 C 
ATOM     12  C   UNL     1      17.345   1.828   5.668  1.00  0.00     0.015 C 
ATOM     13  C   UNL     1      18.190   4.162   5.447  1.00  0.00     0.015 C 
ATOM     14  C   UNL     1      16.459   2.032   4.683  1.00  0.00     0.079 C 
ATOM     15  C   UNL     1      17.317   4.407   4.459  1.00  0.00     0.079 C 
ATOM     16  C   UNL     1      16.363   3.353   3.980  1.00  0.00     0.199 C 
ATOM     17  N   UNL     1      15.508   3.571   3.021  1.00  0.00    -0.235 N 
ATOM     18  C   UNL     1      14.630   2.493   2.467  1.00  0.00     0.433 C 
ATOM     19  C   UNL     1      15.331   4.918   2.392  1.00  0.00     0.433 C 
BRANCH  10  20
ATOM     20  C   UNL     1      20.102   3.705   7.581  1.00  0.00    -0.017 A 
ATOM     21  C   UNL     1      19.706   4.619   8.567  1.00  0.00     0.009 A 
ATOM     22  C   UNL     1      21.381   3.809   7.020  1.00  0.00     0.009 A 
ATOM     23  C   UNL     1      20.584   5.617   8.992  1.00  0.00     0.001 A 
ATOM     24  C   UNL     1      22.256   4.809   7.447  1.00  0.00     0.001 A 
ATOM     25  C   UNL     1      21.858   5.710   8.433  1.00  0.00     0.000 A 
ENDBRANCH  10  20
ENDBRANCH   4  10
TORSDOF 3
ENDMDL
MODEL 9
REMARK minimizedAffinity -5.20175886
REMARK minimizedRMSD -1
REMARK SMILES CN(C)c1ccc(C(=C2C=CC(=[N+](C)C)C=C2)c2ccccc2)cc1
REMARK SMILES IDX 4 1 5 2 6 3 7 4 24 5 25 6 2 7 1 8 3 9 8 10 9 11 10 12 17 13
REMARK SMILES IDX 11 14 16 15 12 16 13 17 14 18 15 19 18 20 19 21 23 22 20 23
REMARK SMILES IDX 22 24 21 25
REMARK H PARENT
ROOT
ATOM      1  C   UNL     1      19.540   0.245   7.333  1.00  0.00     0.036 A 
ATOM      2  C   UNL     1      18.416   0.082   6.501  1.00  0.00     0.026 A 
ATOM      3  C   UNL     1      18.225   0.842   5.338  1.00  0.00     0.011 A 
ATOM      4  C   UNL     1      19.156   1.812   4.970  1.00  0.00    -0.017 A 
ATOM      5  C   UNL     1      20.278   2.003   5.774  1.00  0.00     0.011 A 
ATOM      6  C   UNL     1      20.456   1.236   6.935  1.00  0.00     0.026 A 
ENDROOT
BRANCH   1   7
ATOM      7  N   UNL     1      19.710  -0.498   8.508  1.00  0.00    -0.378 N 
ATOM      8  C   UNL     1      20.235  -1.861   8.412  1.00  0.00     0.143 C 
ATOM      9  C   UNL     1      18.801  -0.261   9.630  1.00  0.00     0.143 C 
ENDBRANCH   1   7
BRANCH   4  10
ATOM     10  C   UNL     1      18.947   2.640   3.754  1.00  0.00    -0.004 C 
ATOM     11  C   UNL     1      18.153   3.753   3.794  1.00  0.00    -0.017 C 
ATOM     12  C   UNL     1      17.481   4.176   5.026  1.00  0.00     0.015 C 
ATOM     13  C   UNL     1      17.930   4.585   2.609  1.00  0.00     0.015 C 
ATOM     14  C   UNL     1      16.699   5.262   5.087  1.00  0.00     0.079 C 
ATOM     15  C   UNL     1      17.156   5.679   2.629  1.00  0.00     0.079 C 
ATOM     16  C   UNL     1      16.461   6.122   3.883  1.00  0.00     0.199 C 
ATOM     17  N   UNL     1      15.705   7.183   3.922  1.00  0.00    -0.235 N 
ATOM     18  C   UNL     1      14.923   7.568   5.140  1.00  0.00     0.433 C 
ATOM     19  C   UNL     1      15.552   8.107   2.754  1.00  0.00     0.433 C 
BRANCH  10  20
ATOM     20  C   UNL     1      19.621   2.230   2.493  1.00  0.00    -0.017 A 
ATOM     21  C   UNL     1      20.766   2.906   2.052  1.00  0.00     0.009 A 
ATOM     22  C   UNL     1      19.114   1.167   1.734  1.00  0.00     0.009 A 
ATOM     23  C   UNL     1      21.401   2.516   0.872  1.00  0.00     0.001 A 
ATOM     24  C   UNL     1      19.751   0.780   0.554  1.00  0.00     0.001 A 
ATOM     25  C   UNL     1      20.894   1.453   0.125  1.00  0.00     0.000 A 
ENDBRANCH  10  20
ENDBRANCH   4  10
TORSDOF 3
ENDMDL
MODEL 10
REMARK minimizedAffinity -5.08055925
REMARK minimizedRMSD -1
REMARK SMILES CN(C)c1ccc(C(=C2C=CC(=[N+](C)C)C=C2)c2ccccc2)cc1
REMARK SMILES IDX 4 1 5 2 6 3 7 4 24 5 25 6 2 7 1 8 3 9 8 10 9 11 10 12 17 13
REMARK SMILES IDX 11 14 16 15 12 16 13 17 14 18 15 19 18 20 19 21 23 22 20 23
REMARK SMILES IDX 22 24 21 25
REMARK H PARENT
ROOT
ATOM      1  C   UNL     1      20.660   1.716   1.634  1.00  0.00     0.036 A 
ATOM      2  C   UNL     1      19.789   0.633   1.413  1.00  0.00     0.026 A 
ATOM      3  C   UNL     1      18.515   0.562   1.996  1.00  0.00     0.011 A 
ATOM      4  C   UNL     1      18.070   1.577   2.841  1.00  0.00    -0.017 A 
ATOM      5  C   UNL     1      18.910   2.662   3.085  1.00  0.00     0.011 A 
ATOM      6  C   UNL     1      20.182   2.720   2.495  1.00  0.00     0.026 A 
ENDROOT
BRANCH   1   7
ATOM      7  N   UNL     1      21.941   1.766   1.071  1.00  0.00    -0.378 N 
ATOM      8  C   UNL     1      23.033   1.049   1.731  1.00  0.00     0.143 C 
ATOM      9  C   UNL     1      22.343   2.969   0.339  1.00  0.00     0.143 C 
ENDBRANCH   1   7
BRANCH   4  10
ATOM     10  C   UNL     1      16.733   1.496   3.484  1.00  0.00    -0.004 C 
ATOM     11  C   UNL     1      16.616   1.242   4.823  1.00  0.00    -0.017 C 
ATOM     12  C   UNL     1      17.791   1.042   5.675  1.00  0.00     0.015 C 
ATOM     13  C   UNL     1      15.309   1.156   5.480  1.00  0.00     0.015 C 
ATOM     14  C   UNL     1      17.699   0.791   6.988  1.00  0.00     0.079 C 
ATOM     15  C   UNL     1      15.175   0.908   6.791  1.00  0.00     0.079 C 
ATOM     16  C   UNL     1      16.369   0.700   7.674  1.00  0.00     0.199 C 
ATOM     17  N   UNL     1      16.259   0.458   8.950  1.00  0.00    -0.235 N 
ATOM     18  C   UNL     1      17.440   0.141   9.813  1.00  0.00     0.433 C 
ATOM     19  C   UNL     1      14.941   0.475   9.661  1.00  0.00     0.433 C 
BRANCH  10  20
ATOM     20  C   UNL     1      15.526   1.698   2.638  1.00  0.00    -0.017 A 
ATOM     21  C   UNL     1      14.841   0.595   2.112  1.00  0.00     0.009 A 
ATOM     22  C   UNL     1      15.068   2.991   2.358  1.00  0.00     0.009 A 
ATOM     23  C   UNL     1      13.705   0.785   1.324  1.00  0.00     0.001 A 
ATOM     24  C   UNL     1      13.932   3.178   1.568  1.00  0.00     0.001 A 
ATOM     25  C   UNL     1      13.251   2.075   1.054  1.00  0.00     0.000 A 
ENDBRANCH  10  20
ENDBRANCH   4  10
TORSDOF 3
ENDMDL
MODEL 11
REMARK minimizedAffinity -5.05292511
REMARK minimizedRMSD -1
REMARK SMILES CN(C)c1ccc(C(=C2C=CC(=[N+](C)C)C=C2)c2ccccc2)cc1
REMARK SMILES IDX 4 1 5 2 6 3 7 4 24 5 25 6 2 7 1 8 3 9 8 10 9 11 10 12 17 13
REMARK SMILES IDX 11 14 16 15 12 16 13 17 14 18 15 19 18 20 19 21 23 22 20 23
REMARK SMILES IDX 22 24 21 25
REMARK H PARENT
ROOT
ATOM      1  C   UNL     1      14.009   0.734   4.523  1.00  0.00     0.036 A 
ATOM      2  C   UNL     1      15.189   1.365   4.085  1.00  0.00     0.026 A 
ATOM      3  C   UNL     1      16.218   1.728   4.965  1.00  0.00     0.011 A 
ATOM      4  C   UNL     1      16.095   1.483   6.332  1.00  0.00    -0.017 A 
ATOM      5  C   UNL     1      14.938   0.863   6.800  1.00  0.00     0.011 A 
ATOM      6  C   UNL     1      13.916   0.505   5.908  1.00  0.00     0.026 A 
ENDROOT
BRANCH   1   7
ATOM      7  N   UNL     1      12.974   0.399   3.642  1.00  0.00    -0.378 N 
ATOM      8  C   UNL     1      12.611  -1.010   3.481  1.00  0.00     0.143 C 
ATOM      9  C   UNL     1      12.756   1.233   2.459  1.00  0.00     0.143 C 
ENDBRANCH   1   7
BRANCH   4  10
ATOM     10  C   UNL     1      17.170   1.889   7.275  1.00  0.00    -0.004 C 
ATOM     11  C   UNL     1      17.314   3.197   7.647  1.00  0.00    -0.017 C 
ATOM     12  C   UNL     1      16.424   4.245   7.140  1.00  0.00     0.015 C 
ATOM     13  C   UNL     1      18.366   3.624   8.573  1.00  0.00     0.015 C 
ATOM     14  C   UNL     1      16.548   5.533   7.491  1.00  0.00     0.079 C 
ATOM     15  C   UNL     1      18.522   4.902   8.950  1.00  0.00     0.079 C 
ATOM     16  C   UNL     1      17.619   5.984   8.438  1.00  0.00     0.199 C 
ATOM     17  N   UNL     1      17.756   7.231   8.793  1.00  0.00    -0.235 N 
ATOM     18  C   UNL     1      16.929   8.330   8.202  1.00  0.00     0.433 C 
ATOM     19  C   UNL     1      18.752   7.671   9.821  1.00  0.00     0.433 C 
BRANCH  10  20
ATOM     20  C   UNL     1      18.084   0.842   7.803  1.00  0.00    -0.017 A 
ATOM     21  C   UNL     1      19.172   0.402   7.036  1.00  0.00     0.009 A 
ATOM     22  C   UNL     1      17.862   0.282   9.068  1.00  0.00     0.009 A 
ATOM     23  C   UNL     1      20.032  -0.577   7.535  1.00  0.00     0.001 A 
ATOM     24  C   UNL     1      18.724  -0.697   9.563  1.00  0.00     0.001 A 
ATOM     25  C   UNL     1      19.809  -1.124   8.798  1.00  0.00     0.000 A 
ENDBRANCH  10  20
ENDBRANCH   4  10
TORSDOF 3
ENDMDL
MODEL 12
REMARK minimizedAffinity -4.97466516
REMARK minimizedRMSD -1
REMARK SMILES CN(C)c1ccc(C(=C2C=CC(=[N+](C)C)C=C2)c2ccccc2)cc1
REMARK SMILES IDX 4 1 5 2 6 3 7 4 24 5 25 6 2 7 1 8 3 9 8 10 9 11 10 12 17 13
REMARK SMILES IDX 11 14 16 15 12 16 13 17 14 18 15 19 18 20 19 21 23 22 20 23
REMARK SMILES IDX 22 24 21 25
REMARK H PARENT
ROOT
ATOM      1  C   UNL     1      20.901   3.980   6.621  1.00  0.00     0.036 A 
ATOM      2  C   UNL     1      21.021   2.626   6.257  1.00  0.00     0.026 A 
ATOM      3  C   UNL     1      20.262   2.054   5.226  1.00  0.00     0.011 A 
ATOM      4  C   UNL     1      19.335   2.822   4.525  1.00  0.00    -0.017 A 
ATOM      5  C   UNL     1      19.187   4.167   4.862  1.00  0.00     0.011 A 
ATOM      6  C   UNL     1      19.953   4.726   5.896  1.00  0.00     0.026 A 
ENDROOT
BRANCH   1   7
ATOM      7  N   UNL     1      21.643   4.538   7.669  1.00  0.00    -0.378 N 
ATOM      8  C   UNL     1      21.073   5.656   8.422  1.00  0.00     0.143 C 
ATOM      9  C   UNL     1      23.104   4.532   7.580  1.00  0.00     0.143 C 
ENDBRANCH   1   7
BRANCH   4  10
ATOM     10  C   UNL     1      18.506   2.217   3.449  1.00  0.00    -0.004 C 
ATOM     11  C   UNL     1      17.253   1.742   3.718  1.00  0.00    -0.017 C 
ATOM     12  C   UNL     1      16.674   1.809   5.062  1.00  0.00     0.015 C 
ATOM     13  C   UNL     1      16.417   1.139   2.676  1.00  0.00     0.015 C 
ATOM     14  C   UNL     1      15.448   1.349   5.347  1.00  0.00     0.079 C 
ATOM     15  C   UNL     1      15.185   0.668   2.920  1.00  0.00     0.079 C 
ATOM     16  C   UNL     1      14.582   0.730   4.292  1.00  0.00     0.199 C 
ATOM     17  N   UNL     1      13.387   0.278   4.548  1.00  0.00    -0.235 N 
ATOM     18  C   UNL     1      12.823   0.237   5.934  1.00  0.00     0.433 C 
ATOM     19  C   UNL     1      12.475  -0.240   3.479  1.00  0.00     0.433 C 
BRANCH  10  20
ATOM     20  C   UNL     1      19.073   2.139   2.077  1.00  0.00    -0.017 A 
ATOM     21  C   UNL     1      18.927   3.216   1.191  1.00  0.00     0.009 A 
ATOM     22  C   UNL     1      19.754   0.989   1.657  1.00  0.00     0.009 A 
ATOM     23  C   UNL     1      19.466   3.144  -0.095  1.00  0.00     0.001 A 
ATOM     24  C   UNL     1      20.290   0.921   0.370  1.00  0.00     0.001 A 
ATOM     25  C   UNL     1      20.147   1.998  -0.503  1.00  0.00     0.000 A 
ENDBRANCH  10  20
ENDBRANCH   4  10
TORSDOF 3
ENDMDL
MODEL 13
REMARK minimizedAffinity -4.93590355
REMARK minimizedRMSD -1
REMARK SMILES CN(C)c1ccc(C(=C2C=CC(=[N+](C)C)C=C2)c2ccccc2)cc1
REMARK SMILES IDX 4 1 5 2 6 3 7 4 24 5 25 6 2 7 1 8 3 9 8 10 9 11 10 12 17 13
REMARK SMILES IDX 11 14 16 15 12 16 13 17 14 18 15 19 18 20 19 21 23 22 20 23
REMARK SMILES IDX 22 24 21 25
REMARK H PARENT
ROOT
ATOM      1  C   UNL     1      14.287   0.798   4.120  1.00  0.00     0.036 A 
ATOM      2  C   UNL     1      14.350   0.974   2.725  1.00  0.00     0.026 A 
ATOM      3  C   UNL     1      15.365   1.718   2.106  1.00  0.00     0.011 A 
ATOM      4  C   UNL     1      16.356   2.329   2.873  1.00  0.00    -0.017 A 
ATOM      5  C   UNL     1      16.321   2.178   4.258  1.00  0.00     0.011 A 
ATOM      6  C   UNL     1      15.299   1.432   4.863  1.00  0.00     0.026 A 
ENDROOT
BRANCH   1   7
ATOM      7  N   UNL     1      13.255   0.077   4.733  1.00  0.00    -0.378 N 
ATOM      8  C   UNL     1      13.371  -0.255   6.154  1.00  0.00     0.143 C 
ATOM      9  C   UNL     1      12.494  -0.884   3.933  1.00  0.00     0.143 C 
ENDBRANCH   1   7
BRANCH   4  10
ATOM     10  C   UNL     1      17.421   3.142   2.227  1.00  0.00    -0.004 C 
ATOM     11  C   UNL     1      17.249   4.483   2.026  1.00  0.00    -0.017 C 
ATOM     12  C   UNL     1      16.024   5.174   2.436  1.00  0.00     0.015 C 
ATOM     13  C   UNL     1      18.282   5.306   1.390  1.00  0.00     0.015 C 
ATOM     14  C   UNL     1      15.835   6.488   2.248  1.00  0.00     0.079 C 
ATOM     15  C   UNL     1      18.133   6.623   1.185  1.00  0.00     0.079 C 
ATOM     16  C   UNL     1      16.883   7.342   1.599  1.00  0.00     0.199 C 
ATOM     17  N   UNL     1      16.719   8.620   1.408  1.00  0.00    -0.235 N 
ATOM     18  C   UNL     1      15.433   9.321   1.719  1.00  0.00     0.433 C 
ATOM     19  C   UNL     1      17.803   9.498   0.862  1.00  0.00     0.433 C 
BRANCH  10  20
ATOM     20  C   UNL     1      18.673   2.461   1.804  1.00  0.00    -0.017 A 
ATOM     21  C   UNL     1      19.575   1.981   2.764  1.00  0.00     0.009 A 
ATOM     22  C   UNL     1      18.965   2.298   0.444  1.00  0.00     0.009 A 
ATOM     23  C   UNL     1      20.747   1.337   2.366  1.00  0.00     0.001 A 
ATOM     24  C   UNL     1      20.139   1.655   0.049  1.00  0.00     0.001 A 
ATOM     25  C   UNL     1      21.027   1.173   1.010  1.00  0.00     0.000 A 
ENDBRANCH  10  20
ENDBRANCH   4  10
TORSDOF 3
ENDMDL
MODEL 14
REMARK minimizedAffinity -4.8967967
REMARK minimizedRMSD -1
REMARK SMILES CN(C)c1ccc(C(=C2C=CC(=[N+](C)C)C=C2)c2ccccc2)cc1
REMARK SMILES IDX 4 1 5 2 6 3 7 4 24 5 25 6 2 7 1 8 3 9 8 10 9 11 10 12 17 13
REMARK SMILES IDX 11 14 16 15 12 16 13 17 14 18 15 19 18 20 19 21 23 22 20 23
REMARK SMILES IDX 22 24 21 25
REMARK H PARENT
ROOT
ATOM      1  C   UNL     1      18.727   3.020   2.556  1.00  0.00     0.036 A 
ATOM      2  C   UNL     1      19.179   4.352   2.581  1.00  0.00     0.026 A 
ATOM      3  C   UNL     1      18.990   5.190   3.690  1.00  0.00     0.011 A 
ATOM      4  C   UNL     1      18.323   4.721   4.820  1.00  0.00    -0.017 A 
ATOM      5  C   UNL     1      17.858   3.407   4.827  1.00  0.00     0.011 A 
ATOM      6  C   UNL     1      18.054   2.581   3.711  1.00  0.00     0.026 A 
ENDROOT
BRANCH   1   7
ATOM      7  N   UNL     1      18.895   2.198   1.435  1.00  0.00    -0.378 N 
ATOM      8  C   UNL     1      19.170   0.774   1.637  1.00  0.00     0.143 C 
ATOM      9  C   UNL     1      19.470   2.773   0.218  1.00  0.00     0.143 C 
ENDBRANCH   1   7
BRANCH   4  10
ATOM     10  C   UNL     1      18.095   5.611   5.989  1.00  0.00    -0.004 C 
ATOM     11  C   UNL     1      17.016   6.451   6.026  1.00  0.00    -0.017 C 
ATOM     12  C   UNL     1      16.047   6.511   4.930  1.00  0.00     0.015 C 
ATOM     13  C   UNL     1      16.770   7.340   7.166  1.00  0.00     0.015 C 
ATOM     14  C   UNL     1      14.984   7.327   4.946  1.00  0.00     0.079 C 
ATOM     15  C   UNL     1      15.718   8.170   7.221  1.00  0.00     0.079 C 
ATOM     16  C   UNL     1      14.719   8.241   6.105  1.00  0.00     0.199 C 
ATOM     17  N   UNL     1      13.691   9.041   6.140  1.00  0.00    -0.235 N 
ATOM     18  C   UNL     1      12.753   9.196   4.984  1.00  0.00     0.433 C 
ATOM     19  C   UNL     1      13.361   9.875   7.340  1.00  0.00     0.433 C 
BRANCH  10  20
ATOM     20  C   UNL     1      19.066   5.566   7.114  1.00  0.00    -0.017 A 
ATOM     21  C   UNL     1      18.721   4.941   8.320  1.00  0.00     0.009 A 
ATOM     22  C   UNL     1      20.331   6.152   6.979  1.00  0.00     0.009 A 
ATOM     23  C   UNL     1      19.636   4.894   9.373  1.00  0.00     0.001 A 
ATOM     24  C   UNL     1      21.243   6.104   8.035  1.00  0.00     0.001 A 
ATOM     25  C   UNL     1      20.896   5.473   9.229  1.00  0.00     0.000 A 
ENDBRANCH  10  20
ENDBRANCH   4  10
TORSDOF 3
ENDMDL
MODEL 15
REMARK minimizedAffinity -4.87732029
REMARK minimizedRMSD -1
REMARK SMILES CN(C)c1ccc(C(=C2C=CC(=[N+](C)C)C=C2)c2ccccc2)cc1
REMARK SMILES IDX 4 1 5 2 6 3 7 4 24 5 25 6 2 7 1 8 3 9 8 10 9 11 10 12 17 13
REMARK SMILES IDX 11 14 16 15 12 16 13 17 14 18 15 19 18 20 19 21 23 22 20 23
REMARK SMILES IDX 22 24 21 25
REMARK H PARENT
ROOT
ATOM      1  C   UNL     1      19.908   2.279   1.396  1.00  0.00     0.036 A 
ATOM      2  C   UNL     1      19.154   2.730   0.296  1.00  0.00     0.026 A 
ATOM      3  C   UNL     1      17.851   3.230   0.431  1.00  0.00     0.011 A 
ATOM      4  C   UNL     1      17.245   3.284   1.685  1.00  0.00    -0.017 A 
ATOM      5  C   UNL     1      17.961   2.841   2.796  1.00  0.00     0.011 A 
ATOM      6  C   UNL     1      19.264   2.343   2.645  1.00  0.00     0.026 A 
ENDROOT
BRANCH   1   7
ATOM      7  N   UNL     1      21.198   1.755   1.250  1.00  0.00    -0.378 N 
ATOM      8  C   UNL     1      21.913   1.292   2.441  1.00  0.00     0.143 C 
ATOM      9  C   UNL     1      22.050   2.268   0.177  1.00  0.00     0.143 C 
ENDBRANCH   1   7
BRANCH   4  10
ATOM     10  C   UNL     1      15.854   3.788   1.833  1.00  0.00    -0.004 C 
ATOM     11  C   UNL     1      15.601   5.130   1.889  1.00  0.00    -0.017 C 
ATOM     12  C   UNL     1      16.676   6.122   1.804  1.00  0.00     0.015 C 
ATOM     13  C   UNL     1      14.240   5.653   2.036  1.00  0.00     0.015 C 
ATOM     14  C   UNL     1      16.449   7.442   1.857  1.00  0.00     0.079 C 
ATOM     15  C   UNL     1      13.971   6.965   2.092  1.00  0.00     0.079 C 
ATOM     16  C   UNL     1      15.062   7.991   2.008  1.00  0.00     0.199 C 
ATOM     17  N   UNL     1      14.821   9.270   2.061  1.00  0.00    -0.235 N 
ATOM     18  C   UNL     1      15.914  10.294   2.087  1.00  0.00     0.433 C 
ATOM     19  C   UNL     1      13.431   9.827   2.100  1.00  0.00     0.433 C 
BRANCH  10  20
ATOM     20  C   UNL     1      14.747   2.799   1.920  1.00  0.00    -0.017 A 
ATOM     21  C   UNL     1      13.893   2.597   0.827  1.00  0.00     0.009 A 
ATOM     22  C   UNL     1      14.547   2.063   3.095  1.00  0.00     0.009 A 
ATOM     23  C   UNL     1      12.858   1.664   0.908  1.00  0.00     0.001 A 
ATOM     24  C   UNL     1      13.511   1.131   3.173  1.00  0.00     0.001 A 
ATOM     25  C   UNL     1      12.669   0.931   2.079  1.00  0.00     0.000 A 
ENDBRANCH  10  20
ENDBRANCH   4  10
TORSDOF 3
ENDMDL
MODEL 16
REMARK minimizedAffinity -4.78667021
REMARK minimizedRMSD -1
REMARK SMILES CN(C)c1ccc(C(=C2C=CC(=[N+](C)C)C=C2)c2ccccc2)cc1
REMARK SMILES IDX 4 1 5 2 6 3 7 4 24 5 25 6 2 7 1 8 3 9 8 10 9 11 10 12 17 13
REMARK SMILES IDX 11 14 16 15 12 16 13 17 14 18 15 19 18 20 19 21 23 22 20 23
REMARK SMILES IDX 22 24 21 25
REMARK H PARENT
ROOT
ATOM      1  C   UNL     1      14.849   4.919   2.253  1.00  0.00     0.036 A 
ATOM      2  C   UNL     1      14.720   3.531   2.061  1.00  0.00     0.026 A 
ATOM      3  C   UNL     1      15.677   2.616   2.524  1.00  0.00     0.011 A 
ATOM      4  C   UNL     1      16.816   3.066   3.190  1.00  0.00    -0.017 A 
ATOM      5  C   UNL     1      16.976   4.435   3.394  1.00  0.00     0.011 A 
ATOM      6  C   UNL     1      16.011   5.339   2.926  1.00  0.00     0.026 A 
ENDROOT
BRANCH   1   7
ATOM      7  N   UNL     1      13.903   5.829   1.765  1.00  0.00    -0.378 N 
ATOM      8  C   UNL     1      13.400   5.662   0.400  1.00  0.00     0.143 C 
ATOM      9  C   UNL     1      13.937   7.210   2.248  1.00  0.00     0.143 C 
ENDBRANCH   1   7
BRANCH   4  10
ATOM     10  C   UNL     1      17.848   2.105   3.660  1.00  0.00    -0.004 C 
ATOM     11  C   UNL     1      17.769   1.550   4.907  1.00  0.00    -0.017 C 
ATOM     12  C   UNL     1      16.675   1.873   5.827  1.00  0.00     0.015 C 
ATOM     13  C   UNL     1      18.774   0.602   5.395  1.00  0.00     0.015 C 
ATOM     14  C   UNL     1      16.579   1.342   7.054  1.00  0.00     0.079 C 
ATOM     15  C   UNL     1      18.714   0.048   6.615  1.00  0.00     0.079 C 
ATOM     16  C   UNL     1      17.600   0.370   7.566  1.00  0.00     0.199 C 
ATOM     17  N   UNL     1      17.524  -0.158   8.755  1.00  0.00    -0.235 N 
ATOM     18  C   UNL     1      16.477   0.243   9.747  1.00  0.00     0.433 C 
ATOM     19  C   UNL     1      18.477  -1.210   9.230  1.00  0.00     0.433 C 
BRANCH  10  20
ATOM     20  C   UNL     1      18.967   1.762   2.743  1.00  0.00    -0.017 A 
ATOM     21  C   UNL     1      18.755   0.892   1.664  1.00  0.00     0.009 A 
ATOM     22  C   UNL     1      20.243   2.301   2.951  1.00  0.00     0.009 A 
ATOM     23  C   UNL     1      19.804   0.576   0.800  1.00  0.00     0.001 A 
ATOM     24  C   UNL     1      21.290   1.982   2.086  1.00  0.00     0.001 A 
ATOM     25  C   UNL     1      21.070   1.122   1.010  1.00  0.00     0.000 A 
ENDBRANCH  10  20
ENDBRANCH   4  10
TORSDOF 3
ENDMDL
MODEL 17
REMARK minimizedAffinity -4.7510519
REMARK minimizedRMSD -1
REMARK SMILES CN(C)c1ccc(C(=C2C=CC(=[N+](C)C)C=C2)c2ccccc2)cc1
REMARK SMILES IDX 4 1 5 2 6 3 7 4 24 5 25 6 2 7 1 8 3 9 8 10 9 11 10 12 17 13
REMARK SMILES IDX 11 14 16 15 12 16 13 17 14 18 15 19 18 20 19 21 23 22 20 23
REMARK SMILES IDX 22 24 21 25
REMARK H PARENT
ROOT
ATOM      1  C   UNL     1      20.864   2.720   2.588  1.00  0.00     0.036 A 
ATOM      2  C   UNL     1      19.522   2.445   2.264  1.00  0.00     0.026 A 
ATOM      3  C   UNL     1      18.552   3.452   2.159  1.00  0.00     0.011 A 
ATOM      4  C   UNL     1      18.893   4.784   2.390  1.00  0.00    -0.017 A 
ATOM      5  C   UNL     1      20.213   5.091   2.716  1.00  0.00     0.011 A 
ATOM      6  C   UNL     1      21.172   4.073   2.819  1.00  0.00     0.026 A 
ENDROOT
BRANCH   1   7
ATOM      7  N   UNL     1      21.821   1.706   2.718  1.00  0.00    -0.378 N 
ATOM      8  C   UNL     1      22.568   1.595   3.972  1.00  0.00     0.143 C 
ATOM      9  C   UNL     1      22.542   1.259   1.526  1.00  0.00     0.143 C 
ENDBRANCH   1   7
BRANCH   4  10
ATOM     10  C   UNL     1      17.865   5.855   2.306  1.00  0.00    -0.004 C 
ATOM     11  C   UNL     1      17.154   6.227   3.413  1.00  0.00    -0.017 C 
ATOM     12  C   UNL     1      17.371   5.596   4.717  1.00  0.00     0.015 C 
ATOM     13  C   UNL     1      16.134   7.278   3.357  1.00  0.00     0.015 C 
ATOM     14  C   UNL     1      16.685   5.945   5.814  1.00  0.00     0.079 C 
ATOM     15  C   UNL     1      15.427   7.658   4.431  1.00  0.00     0.079 C 
ATOM     16  C   UNL     1      15.639   7.019   5.772  1.00  0.00     0.199 C 
ATOM     17  N   UNL     1      14.962   7.374   6.827  1.00  0.00    -0.235 N 
ATOM     18  C   UNL     1      15.091   6.667   8.141  1.00  0.00     0.433 C 
ATOM     19  C   UNL     1      13.996   8.518   6.817  1.00  0.00     0.433 C 
BRANCH  10  20
ATOM     20  C   UNL     1      17.629   6.510   0.992  1.00  0.00    -0.017 A 
ATOM     21  C   UNL     1      16.627   6.034   0.136  1.00  0.00     0.009 A 
ATOM     22  C   UNL     1      18.409   7.604   0.598  1.00  0.00     0.009 A 
ATOM     23  C   UNL     1      16.402   6.654  -1.094  1.00  0.00     0.001 A 
ATOM     24  C   UNL     1      18.182   8.221  -0.634  1.00  0.00     0.001 A 
ATOM     25  C   UNL     1      17.178   7.747  -1.477  1.00  0.00     0.000 A 
ENDBRANCH  10  20
ENDBRANCH   4  10
TORSDOF 3
ENDMDL
MODEL 18
REMARK minimizedAffinity -4.7134819
REMARK minimizedRMSD -1
REMARK SMILES CN(C)c1ccc(C(=C2C=CC(=[N+](C)C)C=C2)c2ccccc2)cc1
REMARK SMILES IDX 4 1 5 2 6 3 7 4 24 5 25 6 2 7 1 8 3 9 8 10 9 11 10 12 17 13
REMARK SMILES IDX 11 14 16 15 12 16 13 17 14 18 15 19 18 20 19 21 23 22 20 23
REMARK SMILES IDX 22 24 21 25
REMARK H PARENT
ROOT
ATOM      1  C   UNL     1      21.628   3.467   1.829  1.00  0.00     0.036 A 
ATOM      2  C   UNL     1      20.837   4.094   2.810  1.00  0.00     0.026 A 
ATOM      3  C   UNL     1      19.488   4.412   2.598  1.00  0.00     0.011 A 
ATOM      4  C   UNL     1      18.880   4.122   1.377  1.00  0.00    -0.017 A 
ATOM      5  C   UNL     1      19.636   3.505   0.382  1.00  0.00     0.011 A 
ATOM      6  C   UNL     1      20.985   3.194   0.608  1.00  0.00     0.026 A 
ENDROOT
BRANCH   1   7
ATOM      7  N   UNL     1      22.982   3.178   2.039  1.00  0.00    -0.378 N 
ATOM      8  C   UNL     1      23.531   1.933   1.498  1.00  0.00     0.143 C 
ATOM      9  C   UNL     1      23.625   3.659   3.262  1.00  0.00     0.143 C 
ENDBRANCH   1   7
BRANCH   4  10
ATOM     10  C   UNL     1      17.458   4.480   1.135  1.00  0.00    -0.004 C 
ATOM     11  C   UNL     1      16.462   3.571   1.359  1.00  0.00    -0.017 C 
ATOM     12  C   UNL     1      16.747   2.219   1.845  1.00  0.00     0.015 C 
ATOM     13  C   UNL     1      15.052   3.898   1.126  1.00  0.00     0.015 C 
ATOM     14  C   UNL     1      15.786   1.312   2.070  1.00  0.00     0.079 C 
ATOM     15  C   UNL     1      14.061   3.021   1.340  1.00  0.00     0.079 C 
ATOM     16  C   UNL     1      14.340   1.633   1.836  1.00  0.00     0.199 C 
ATOM     17  N   UNL     1      13.391   0.766   2.050  1.00  0.00    -0.235 N 
ATOM     18  C   UNL     1      13.671  -0.653   2.440  1.00  0.00     0.433 C 
ATOM     19  C   UNL     1      11.940   1.113   1.925  1.00  0.00     0.433 C 
BRANCH  10  20
ATOM     20  C   UNL     1      17.145   5.848   0.642  1.00  0.00    -0.017 A 
ATOM     21  C   UNL     1      17.038   6.916   1.544  1.00  0.00     0.009 A 
ATOM     22  C   UNL     1      16.951   6.080  -0.725  1.00  0.00     0.009 A 
ATOM     23  C   UNL     1      16.751   8.201   1.080  1.00  0.00     0.001 A 
ATOM     24  C   UNL     1      16.663   7.366  -1.186  1.00  0.00     0.001 A 
ATOM     25  C   UNL     1      16.566   8.425  -0.284  1.00  0.00     0.000 A 
ENDBRANCH  10  20
ENDBRANCH   4  10
TORSDOF 3
ENDMDL
MODEL 19
REMARK minimizedAffinity -4.6699748
REMARK minimizedRMSD -1
REMARK SMILES CN(C)c1ccc(C(=C2C=CC(=[N+](C)C)C=C2)c2ccccc2)cc1
REMARK SMILES IDX 4 1 5 2 6 3 7 4 24 5 25 6 2 7 1 8 3 9 8 10 9 11 10 12 17 13
REMARK SMILES IDX 11 14 16 15 12 16 13 17 14 18 15 19 18 20 19 21 23 22 20 23
REMARK SMILES IDX 22 24 21 25
REMARK H PARENT
ROOT
ATOM      1  C   UNL     1      20.357   5.592   5.849  1.00  0.00     0.036 A 
ATOM      2  C   UNL     1      18.969   5.731   6.037  1.00  0.00     0.026 A 
ATOM      3  C   UNL     1      18.059   5.711   4.970  1.00  0.00     0.011 A 
ATOM      4  C   UNL     1      18.513   5.563   3.661  1.00  0.00    -0.017 A 
ATOM      5  C   UNL     1      19.882   5.427   3.438  1.00  0.00     0.011 A 
ATOM      6  C   UNL     1      20.781   5.449   4.515  1.00  0.00     0.026 A 
ENDROOT
BRANCH   1   7
ATOM      7  N   UNL     1      21.262   5.640   6.916  1.00  0.00    -0.378 N 
ATOM      8  C   UNL     1      22.275   4.590   7.032  1.00  0.00     0.143 C 
ATOM      9  C   UNL     1      20.824   6.221   8.186  1.00  0.00     0.143 C 
ENDBRANCH   1   7
BRANCH   4  10
ATOM     10  C   UNL     1      17.558   5.568   2.522  1.00  0.00    -0.004 C 
ATOM     11  C   UNL     1      16.649   4.559   2.370  1.00  0.00    -0.017 C 
ATOM     12  C   UNL     1      16.574   3.439   3.313  1.00  0.00     0.015 C 
ATOM     13  C   UNL     1      15.697   4.539   1.256  1.00  0.00     0.015 C 
ATOM     14  C   UNL     1      15.691   2.440   3.182  1.00  0.00     0.079 C 
ATOM     15  C   UNL     1      14.798   3.558   1.090  1.00  0.00     0.079 C 
ATOM     16  C   UNL     1      14.712   2.406   2.047  1.00  0.00     0.199 C 
ATOM     17  N   UNL     1      13.845   1.444   1.903  1.00  0.00    -0.235 N 
ATOM     18  C   UNL     1      13.827   0.239   2.791  1.00  0.00     0.433 C 
ATOM     19  C   UNL     1      12.794   1.461   0.837  1.00  0.00     0.433 C 
BRANCH  10  20
ATOM     20  C   UNL     1      17.615   6.695   1.554  1.00  0.00    -0.017 A 
ATOM     21  C   UNL     1      16.818   7.832   1.745  1.00  0.00     0.009 A 
ATOM     22  C   UNL     1      18.463   6.628   0.441  1.00  0.00     0.009 A 
ATOM     23  C   UNL     1      16.877   8.892   0.839  1.00  0.00     0.001 A 
ATOM     24  C   UNL     1      18.519   7.689  -0.464  1.00  0.00     0.001 A 
ATOM     25  C   UNL     1      17.728   8.820  -0.263  1.00  0.00     0.000 A 
ENDBRANCH  10  20
ENDBRANCH   4  10
TORSDOF 3
ENDMDL
MODEL 20
REMARK minimizedAffinity -4.63099957
REMARK minimizedRMSD -1
REMARK SMILES CN(C)c1ccc(C(=C2C=CC(=[N+](C)C)C=C2)c2ccccc2)cc1
REMARK SMILES IDX 4 1 5 2 6 3 7 4 24 5 25 6 2 7 1 8 3 9 8 10 9 11 10 12 17 13
REMARK SMILES IDX 11 14 16 15 12 16 13 17 14 18 15 19 18 20 19 21 23 22 20 23
REMARK SMILES IDX 22 24 21 25
REMARK H PARENT
ROOT
ATOM      1  C   UNL     1      15.214   5.370   2.923  1.00  0.00     0.036 A 
ATOM      2  C   UNL     1      15.219   6.714   3.341  1.00  0.00     0.026 A 
ATOM      3  C   UNL     1      15.808   7.125   4.546  1.00  0.00     0.011 A 
ATOM      4  C   UNL     1      16.407   6.192   5.390  1.00  0.00    -0.017 A 
ATOM      5  C   UNL     1      16.417   4.851   5.009  1.00  0.00     0.011 A 
ATOM      6  C   UNL     1      15.823   4.454   3.801  1.00  0.00     0.026 A 
ENDROOT
BRANCH   1   7
ATOM      7  N   UNL     1      14.600   4.963   1.732  1.00  0.00    -0.378 N 
ATOM      8  C   UNL     1      13.815   5.937   0.973  1.00  0.00     0.143 C 
ATOM      9  C   UNL     1      14.154   3.575   1.607  1.00  0.00     0.143 C 
ENDBRANCH   1   7
BRANCH   4  10
ATOM     10  C   UNL     1      17.010   6.615   6.681  1.00  0.00    -0.004 C 
ATOM     11  C   UNL     1      18.289   6.258   7.005  1.00  0.00    -0.017 C 
ATOM     12  C   UNL     1      19.116   5.452   6.102  1.00  0.00     0.015 C 
ATOM     13  C   UNL     1      18.906   6.660   8.271  1.00  0.00     0.015 C 
ATOM     14  C   UNL     1      20.372   5.091   6.400  1.00  0.00     0.079 C 
ATOM     15  C   UNL     1      20.159   6.321   8.606  1.00  0.00     0.079 C 
ATOM     16  C   UNL     1      21.016   5.496   7.692  1.00  0.00     0.199 C 
ATOM     17  N   UNL     1      22.235   5.155   7.999  1.00  0.00    -0.235 N 
ATOM     18  C   UNL     1      23.056   4.242   7.142  1.00  0.00     0.433 C 
ATOM     19  C   UNL     1      22.921   5.648   9.236  1.00  0.00     0.433 C 
BRANCH  10  20
ATOM     20  C   UNL     1      16.189   7.434   7.612  1.00  0.00    -0.017 A 
ATOM     21  C   UNL     1      15.163   6.839   8.360  1.00  0.00     0.009 A 
ATOM     22  C   UNL     1      16.430   8.808   7.746  1.00  0.00     0.009 A 
ATOM     23  C   UNL     1      14.398   7.608   9.238  1.00  0.00     0.001 A 
ATOM     24  C   UNL     1      15.662   9.574   8.623  1.00  0.00     0.001 A 
ATOM     25  C   UNL     1      14.648   8.974   9.370  1.00  0.00     0.000 A 
ENDBRANCH  10  20
ENDBRANCH   4  10
TORSDOF 3
ENDMDL
