MODEL 1
REMARK minimizedAffinity -5.82315397
REMARK minimizedRMSD -1
REMARK SMILES CN(C)c1ccc(C(=C2C=CC(=[N+](C)C)C=C2)c2ccccc2)cc1
REMARK SMILES IDX 4 1 5 2 6 3 7 4 24 5 25 6 2 7 1 8 3 9 8 10 9 11 10 12 17 13
REMARK SMILES IDX 11 14 16 15 12 16 13 17 14 18 15 19 18 20 19 21 23 22 20 23
REMARK SMILES IDX 22 24 21 25
REMARK H PARENT
ROOT
ATOM      1  C   UNL     1      32.672  -8.271 -19.456  1.00  0.00     0.036 A 
ATOM      2  C   UNL     1      31.908  -9.041 -20.354  1.00  0.00     0.026 A 
ATOM      3  C   UNL     1      30.567  -8.750 -20.641  1.00  0.00     0.011 A 
ATOM      4  C   UNL     1      29.932  -7.674 -20.022  1.00  0.00    -0.017 A 
ATOM      5  C   UNL     1      30.658  -6.893 -19.124  1.00  0.00     0.011 A 
ATOM      6  C   UNL     1      32.000  -7.196 -18.846  1.00  0.00     0.026 A 
ENDROOT
BRANCH   1   7
ATOM      7  N   UNL     1      34.003  -8.584 -19.154  1.00  0.00    -0.378 N 
ATOM      8  C   UNL     1      35.054  -7.635 -19.524  1.00  0.00     0.143 C 
ATOM      9  C   UNL     1      34.413  -9.989 -19.143  1.00  0.00     0.143 C 
ENDBRANCH   1   7
BRANCH   4  10
ATOM     10  C   UNL     1      28.503  -7.375 -20.300  1.00  0.00    -0.004 C 
ATOM     11  C   UNL     1      28.149  -6.572 -21.348  1.00  0.00    -0.017 C 
ATOM     12  C   UNL     1      29.152  -5.977 -22.236  1.00  0.00     0.015 C 
ATOM     13  C   UNL     1      26.748  -6.260 -21.643  1.00  0.00     0.015 C 
ATOM     14  C   UNL     1      28.827  -5.187 -23.269  1.00  0.00     0.079 C 
ATOM     15  C   UNL     1      26.381  -5.475 -22.666  1.00  0.00     0.079 C 
ATOM     16  C   UNL     1      27.398  -4.859 -23.582  1.00  0.00     0.199 C 
ATOM     17  N   UNL     1      27.061  -4.094 -24.581  1.00  0.00    -0.235 N 
ATOM     18  C   UNL     1      28.073  -3.390 -25.431  1.00  0.00     0.433 C 
ATOM     19  C   UNL     1      25.634  -3.853 -24.966  1.00  0.00     0.433 C 
BRANCH  10  20
ATOM     20  C   UNL     1      27.468  -7.970 -19.412  1.00  0.00    -0.017 A 
ATOM     21  C   UNL     1      27.300  -7.491 -18.106  1.00  0.00     0.009 A 
ATOM     22  C   UNL     1      26.657  -9.015 -19.872  1.00  0.00     0.009 A 
ATOM     23  C   UNL     1      26.324  -8.045 -17.275  1.00  0.00     0.001 A 
ATOM     24  C   UNL     1      25.684  -9.567 -19.039  1.00  0.00     0.001 A 
ATOM     25  C   UNL     1      25.516  -9.081 -17.743  1.00  0.00     0.000 A 
ENDBRANCH  10  20
ENDBRANCH   4  10
TORSDOF 3
ENDMDL
MODEL 2
REMARK minimizedAffinity -5.7683897
REMARK minimizedRMSD -1
REMARK SMILES CN(C)c1ccc(C(=C2C=CC(=[N+](C)C)C=C2)c2ccccc2)cc1
REMARK SMILES IDX 4 1 5 2 6 3 7 4 24 5 25 6 2 7 1 8 3 9 8 10 9 11 10 12 17 13
REMARK SMILES IDX 11 14 16 15 12 16 13 17 14 18 15 19 18 20 19 21 23 22 20 23
REMARK SMILES IDX 22 24 21 25
REMARK H PARENT
ROOT
ATOM      1  C   UNL     1      34.410  -8.856 -18.608  1.00  0.00     0.036 A 
ATOM      2  C   UNL     1      33.748  -7.615 -18.644  1.00  0.00     0.026 A 
ATOM      3  C   UNL     1      32.593  -7.401 -19.410  1.00  0.00     0.011 A 
ATOM      4  C   UNL     1      32.063  -8.429 -20.187  1.00  0.00    -0.017 A 
ATOM      5  C   UNL     1      32.697  -9.671 -20.178  1.00  0.00     0.011 A 
ATOM      6  C   UNL     1      33.851  -9.871 -19.407  1.00  0.00     0.026 A 
ENDROOT
BRANCH   1   7
ATOM      7  N   UNL     1      35.578  -9.056 -17.862  1.00  0.00    -0.378 N 
ATOM      8  C   UNL     1      36.002 -10.424 -17.564  1.00  0.00     0.143 C 
ATOM      9  C   UNL     1      35.953  -8.059 -16.858  1.00  0.00     0.143 C 
ENDBRANCH   1   7
BRANCH   4  10
ATOM     10  C   UNL     1      30.855  -8.202 -21.023  1.00  0.00    -0.004 C 
ATOM     11  C   UNL     1      30.933  -7.475 -22.178  1.00  0.00    -0.017 C 
ATOM     12  C   UNL     1      32.196  -6.894 -22.641  1.00  0.00     0.015 C 
ATOM     13  C   UNL     1      29.757  -7.235 -23.019  1.00  0.00     0.015 C 
ATOM     14  C   UNL     1      32.294  -6.178 -23.769  1.00  0.00     0.079 C 
ATOM     15  C   UNL     1      29.813  -6.525 -24.156  1.00  0.00     0.079 C 
ATOM     16  C   UNL     1      31.099  -5.924 -24.639  1.00  0.00     0.199 C 
ATOM     17  N   UNL     1      31.174  -5.231 -25.740  1.00  0.00    -0.235 N 
ATOM     18  C   UNL     1      32.430  -4.539 -26.171  1.00  0.00     0.433 C 
ATOM     19  C   UNL     1      30.011  -5.068 -26.669  1.00  0.00     0.433 C 
BRANCH  10  20
ATOM     20  C   UNL     1      29.562  -8.783 -20.574  1.00  0.00    -0.017 A 
ATOM     21  C   UNL     1      29.151 -10.038 -21.044  1.00  0.00     0.009 A 
ATOM     22  C   UNL     1      28.744  -8.080 -19.680  1.00  0.00     0.009 A 
ATOM     23  C   UNL     1      27.940 -10.585 -20.616  1.00  0.00     0.001 A 
ATOM     24  C   UNL     1      27.534  -8.630 -19.255  1.00  0.00     0.001 A 
ATOM     25  C   UNL     1      27.134  -9.882 -19.721  1.00  0.00     0.000 A 
ENDBRANCH  10  20
ENDBRANCH   4  10
TORSDOF 3
ENDMDL
MODEL 3
REMARK minimizedAffinity -5.35546255
REMARK minimizedRMSD -1
REMARK SMILES CN(C)c1ccc(C(=C2C=CC(=[N+](C)C)C=C2)c2ccccc2)cc1
REMARK SMILES IDX 4 1 5 2 6 3 7 4 24 5 25 6 2 7 1 8 3 9 8 10 9 11 10 12 17 13
REMARK SMILES IDX 11 14 16 15 12 16 13 17 14 18 15 19 18 20 19 21 23 22 20 23
REMARK SMILES IDX 22 24 21 25
REMARK H PARENT
ROOT
ATOM      1  C   UNL     1      28.532  -5.892 -25.413  1.00  0.00     0.036 A 
ATOM      2  C   UNL     1      28.449  -5.324 -24.128  1.00  0.00     0.026 A 
ATOM      3  C   UNL     1      28.911  -5.987 -22.982  1.00  0.00     0.011 A 
ATOM      4  C   UNL     1      29.465  -7.262 -23.081  1.00  0.00    -0.017 A 
ATOM      5  C   UNL     1      29.559  -7.855 -24.339  1.00  0.00     0.011 A 
ATOM      6  C   UNL     1      29.092  -7.181 -25.477  1.00  0.00     0.026 A 
ENDROOT
BRANCH   1   7
ATOM      7  N   UNL     1      28.043  -5.235 -26.549  1.00  0.00    -0.378 N 
ATOM      8  C   UNL     1      26.616  -4.922 -26.626  1.00  0.00     0.143 C 
ATOM      9  C   UNL     1      28.695  -5.476 -27.837  1.00  0.00     0.143 C 
ENDBRANCH   1   7
BRANCH   4  10
ATOM     10  C   UNL     1      29.933  -7.982 -21.868  1.00  0.00    -0.004 C 
ATOM     11  C   UNL     1      31.233  -7.883 -21.455  1.00  0.00    -0.017 C 
ATOM     12  C   UNL     1      32.213  -7.071 -22.181  1.00  0.00     0.015 C 
ATOM     13  C   UNL     1      31.719  -8.585 -20.264  1.00  0.00     0.015 C 
ATOM     14  C   UNL     1      33.491  -6.961 -21.794  1.00  0.00     0.079 C 
ATOM     15  C   UNL     1      32.989  -8.500 -19.843  1.00  0.00     0.079 C 
ATOM     16  C   UNL     1      34.002  -7.672 -20.577  1.00  0.00     0.199 C 
ATOM     17  N   UNL     1      35.241  -7.578 -20.184  1.00  0.00    -0.235 N 
ATOM     18  C   UNL     1      36.281  -6.843 -20.972  1.00  0.00     0.433 C 
ATOM     19  C   UNL     1      35.731  -8.195 -18.911  1.00  0.00     0.433 C 
BRANCH  10  20
ATOM     20  C   UNL     1      28.955  -8.812 -21.116  1.00  0.00    -0.017 A 
ATOM     21  C   UNL     1      28.265  -8.272 -20.022  1.00  0.00     0.009 A 
ATOM     22  C   UNL     1      28.719 -10.141 -21.491  1.00  0.00     0.009 A 
ATOM     23  C   UNL     1      27.342  -9.050 -19.320  1.00  0.00     0.001 A 
ATOM     24  C   UNL     1      27.796 -10.916 -20.787  1.00  0.00     0.001 A 
ATOM     25  C   UNL     1      27.108 -10.370 -19.704  1.00  0.00     0.000 A 
ENDBRANCH  10  20
ENDBRANCH   4  10
TORSDOF 3
ENDMDL
MODEL 4
REMARK minimizedAffinity -5.24116802
REMARK minimizedRMSD -1
REMARK SMILES CN(C)c1ccc(C(=C2C=CC(=[N+](C)C)C=C2)c2ccccc2)cc1
REMARK SMILES IDX 4 1 5 2 6 3 7 4 24 5 25 6 2 7 1 8 3 9 8 10 9 11 10 12 17 13
REMARK SMILES IDX 11 14 16 15 12 16 13 17 14 18 15 19 18 20 19 21 23 22 20 23
REMARK SMILES IDX 22 24 21 25
REMARK H PARENT
ROOT
ATOM      1  C   UNL     1      33.261  -7.379 -18.530  1.00  0.00     0.036 A 
ATOM      2  C   UNL     1      32.258  -6.443 -18.219  1.00  0.00     0.026 A 
ATOM      3  C   UNL     1      30.970  -6.509 -18.771  1.00  0.00     0.011 A 
ATOM      4  C   UNL     1      30.643  -7.517 -19.675  1.00  0.00    -0.017 A 
ATOM      5  C   UNL     1      31.615  -8.459 -20.009  1.00  0.00     0.011 A 
ATOM      6  C   UNL     1      32.899  -8.381 -19.449  1.00  0.00     0.026 A 
ENDROOT
BRANCH   1   7
ATOM      7  N   UNL     1      34.553  -7.291 -17.996  1.00  0.00    -0.378 N 
ATOM      8  C   UNL     1      35.505  -8.370 -18.267  1.00  0.00     0.143 C 
ATOM      9  C   UNL     1      34.742  -6.604 -16.718  1.00  0.00     0.143 C 
ENDBRANCH   1   7
BRANCH   4  10
ATOM     10  C   UNL     1      29.289  -7.578 -20.286  1.00  0.00    -0.004 C 
ATOM     11  C   UNL     1      29.071  -7.101 -21.548  1.00  0.00    -0.017 C 
ATOM     12  C   UNL     1      30.150  -6.515 -22.348  1.00  0.00     0.015 C 
ATOM     13  C   UNL     1      27.746  -7.147 -22.172  1.00  0.00     0.015 C 
ATOM     14  C   UNL     1      29.957  -6.041 -23.587  1.00  0.00     0.079 C 
ATOM     15  C   UNL     1      27.512  -6.684 -23.408  1.00  0.00     0.079 C 
ATOM     16  C   UNL     1      28.607  -6.082 -24.238  1.00  0.00     0.199 C 
ATOM     17  N   UNL     1      28.399  -5.627 -25.441  1.00  0.00    -0.235 N 
ATOM     18  C   UNL     1      29.462  -4.926 -26.230  1.00  0.00     0.433 C 
ATOM     19  C   UNL     1      27.081  -5.765 -26.138  1.00  0.00     0.433 C 
BRANCH  10  20
ATOM     20  C   UNL     1      28.180  -8.170 -19.492  1.00  0.00    -0.017 A 
ATOM     21  C   UNL     1      27.678  -9.438 -19.815  1.00  0.00     0.009 A 
ATOM     22  C   UNL     1      27.625  -7.463 -18.417  1.00  0.00     0.009 A 
ATOM     23  C   UNL     1      26.641  -9.994 -19.065  1.00  0.00     0.001 A 
ATOM     24  C   UNL     1      26.587  -8.022 -17.670  1.00  0.00     0.001 A 
ATOM     25  C   UNL     1      26.098  -9.287 -17.993  1.00  0.00     0.000 A 
ENDBRANCH  10  20
ENDBRANCH   4  10
TORSDOF 3
ENDMDL
MODEL 5
REMARK minimizedAffinity -5.12110472
REMARK minimizedRMSD -1
REMARK SMILES CN(C)c1ccc(C(=C2C=CC(=[N+](C)C)C=C2)c2ccccc2)cc1
REMARK SMILES IDX 4 1 5 2 6 3 7 4 24 5 25 6 2 7 1 8 3 9 8 10 9 11 10 12 17 13
REMARK SMILES IDX 11 14 16 15 12 16 13 17 14 18 15 19 18 20 19 21 23 22 20 23
REMARK SMILES IDX 22 24 21 25
REMARK H PARENT
ROOT
ATOM      1  C   UNL     1      28.000  -6.240 -25.705  1.00  0.00     0.036 A 
ATOM      2  C   UNL     1      27.472  -6.075 -24.411  1.00  0.00     0.026 A 
ATOM      3  C   UNL     1      28.025  -6.705 -23.287  1.00  0.00     0.011 A 
ATOM      4  C   UNL     1      29.130  -7.543 -23.422  1.00  0.00    -0.017 A 
ATOM      5  C   UNL     1      29.676  -7.733 -24.691  1.00  0.00     0.011 A 
ATOM      6  C   UNL     1      29.112  -7.096 -25.806  1.00  0.00     0.026 A 
ENDROOT
BRANCH   1   7
ATOM      7  N   UNL     1      27.426  -5.630 -26.826  1.00  0.00    -0.378 N 
ATOM      8  C   UNL     1      28.265  -5.367 -27.996  1.00  0.00     0.143 C 
ATOM      9  C   UNL     1      26.325  -4.685 -26.630  1.00  0.00     0.143 C 
ENDBRANCH   1   7
BRANCH   4  10
ATOM     10  C   UNL     1      29.706  -8.236 -22.240  1.00  0.00    -0.004 C 
ATOM     11  C   UNL     1      30.883  -7.813 -21.688  1.00  0.00    -0.017 C 
ATOM     12  C   UNL     1      31.622  -6.670 -22.230  1.00  0.00     0.015 C 
ATOM     13  C   UNL     1      31.473  -8.480 -20.524  1.00  0.00     0.015 C 
ATOM     14  C   UNL     1      32.777  -6.239 -21.705  1.00  0.00     0.079 C 
ATOM     15  C   UNL     1      32.625  -8.080 -19.968  1.00  0.00     0.079 C 
ATOM     16  C   UNL     1      33.392  -6.912 -20.514  1.00  0.00     0.199 C 
ATOM     17  N   UNL     1      34.514  -6.508 -19.988  1.00  0.00    -0.235 N 
ATOM     18  C   UNL     1      35.337  -5.413 -20.593  1.00  0.00     0.433 C 
ATOM     19  C   UNL     1      35.076  -7.104 -18.735  1.00  0.00     0.433 C 
BRANCH  10  20
ATOM     20  C   UNL     1      28.972  -9.399 -21.673  1.00  0.00    -0.017 A 
ATOM     21  C   UNL     1      29.243 -10.696 -22.129  1.00  0.00     0.009 A 
ATOM     22  C   UNL     1      28.001  -9.207 -20.681  1.00  0.00     0.009 A 
ATOM     23  C   UNL     1      28.559 -11.787 -21.592  1.00  0.00     0.001 A 
ATOM     24  C   UNL     1      27.318 -10.300 -20.147  1.00  0.00     0.001 A 
ATOM     25  C   UNL     1      27.598 -11.588 -20.600  1.00  0.00     0.000 A 
ENDBRANCH  10  20
ENDBRANCH   4  10
TORSDOF 3
ENDMDL
MODEL 6
REMARK minimizedAffinity -5.0848875
REMARK minimizedRMSD -1
REMARK SMILES CN(C)c1ccc(C(=C2C=CC(=[N+](C)C)C=C2)c2ccccc2)cc1
REMARK SMILES IDX 4 1 5 2 6 3 7 4 24 5 25 6 2 7 1 8 3 9 8 10 9 11 10 12 17 13
REMARK SMILES IDX 11 14 16 15 12 16 13 17 14 18 15 19 18 20 19 21 23 22 20 23
REMARK SMILES IDX 22 24 21 25
REMARK H PARENT
ROOT
ATOM      1  C   UNL     1      27.336  -8.384 -18.945  1.00  0.00     0.036 A 
ATOM      2  C   UNL     1      28.131  -7.282 -18.580  1.00  0.00     0.026 A 
ATOM      3  C   UNL     1      29.368  -7.014 -19.184  1.00  0.00     0.011 A 
ATOM      4  C   UNL     1      29.864  -7.858 -20.175  1.00  0.00    -0.017 A 
ATOM      5  C   UNL     1      29.105  -8.962 -20.558  1.00  0.00     0.011 A 
ATOM      6  C   UNL     1      27.869  -9.218 -19.945  1.00  0.00     0.026 A 
ENDROOT
BRANCH   1   7
ATOM      7  N   UNL     1      26.114  -8.661 -18.319  1.00  0.00    -0.378 N 
ATOM      8  C   UNL     1      25.998  -8.458 -16.874  1.00  0.00     0.143 C 
ATOM      9  C   UNL     1      25.265  -9.720 -18.865  1.00  0.00     0.143 C 
ENDBRANCH   1   7
BRANCH   4  10
ATOM     10  C   UNL     1      31.187  -7.596 -20.801  1.00  0.00    -0.004 C 
ATOM     11  C   UNL     1      31.273  -6.981 -22.019  1.00  0.00    -0.017 C 
ATOM     12  C   UNL     1      30.079  -6.555 -22.754  1.00  0.00     0.015 C 
ATOM     13  C   UNL     1      32.564  -6.713 -22.659  1.00  0.00     0.015 C 
ATOM     14  C   UNL     1      30.141  -5.952 -23.949  1.00  0.00     0.079 C 
ATOM     15  C   UNL     1      32.669  -6.111 -23.852  1.00  0.00     0.079 C 
ATOM     16  C   UNL     1      31.455  -5.671 -24.615  1.00  0.00     0.199 C 
ATOM     17  N   UNL     1      31.537  -5.085 -25.776  1.00  0.00    -0.235 N 
ATOM     18  C   UNL     1      30.328  -4.743 -26.590  1.00  0.00     0.433 C 
ATOM     19  C   UNL     1      32.846  -4.703 -26.395  1.00  0.00     0.433 C 
BRANCH  10  20
ATOM     20  C   UNL     1      32.412  -8.019 -20.072  1.00  0.00    -0.017 A 
ATOM     21  C   UNL     1      32.830  -9.357 -20.110  1.00  0.00     0.009 A 
ATOM     22  C   UNL     1      33.156  -7.086 -19.339  1.00  0.00     0.009 A 
ATOM     23  C   UNL     1      33.984  -9.751 -19.431  1.00  0.00     0.001 A 
ATOM     24  C   UNL     1      34.309  -7.484 -18.660  1.00  0.00     0.001 A 
ATOM     25  C   UNL     1      34.723  -8.815 -18.708  1.00  0.00     0.000 A 
ENDBRANCH  10  20
ENDBRANCH   4  10
TORSDOF 3
ENDMDL
MODEL 7
REMARK minimizedAffinity -5.0143733
REMARK minimizedRMSD -1
REMARK SMILES CN(C)c1ccc(C(=C2C=CC(=[N+](C)C)C=C2)c2ccccc2)cc1
REMARK SMILES IDX 4 1 5 2 6 3 7 4 24 5 25 6 2 7 1 8 3 9 8 10 9 11 10 12 17 13
REMARK SMILES IDX 11 14 16 15 12 16 13 17 14 18 15 19 18 20 19 21 23 22 20 23
REMARK SMILES IDX 22 24 21 25
REMARK H PARENT
ROOT
ATOM      1  C   UNL     1      22.475  -6.519 -30.882  1.00  0.00     0.036 A 
ATOM      2  C   UNL     1      21.665  -5.918 -29.901  1.00  0.00     0.026 A 
ATOM      3  C   UNL     1      20.337  -6.309 -29.678  1.00  0.00     0.011 A 
ATOM      4  C   UNL     1      19.762  -7.319 -30.448  1.00  0.00    -0.017 A 
ATOM      5  C   UNL     1      20.535  -7.934 -31.431  1.00  0.00     0.011 A 
ATOM      6  C   UNL     1      21.862  -7.532 -31.643  1.00  0.00     0.026 A 
ENDROOT
BRANCH   1   7
ATOM      7  N   UNL     1      23.791  -6.104 -31.117  1.00  0.00    -0.378 N 
ATOM      8  C   UNL     1      24.339  -5.005 -30.321  1.00  0.00     0.143 C 
ATOM      9  C   UNL     1      24.337  -6.221 -32.470  1.00  0.00     0.143 C 
ENDBRANCH   1   7
BRANCH   4  10
ATOM     10  C   UNL     1      18.347  -7.722 -30.236  1.00  0.00    -0.004 C 
ATOM     11  C   UNL     1      17.323  -6.932 -30.681  1.00  0.00    -0.017 C 
ATOM     12  C   UNL     1      17.571  -5.668 -31.380  1.00  0.00     0.015 C 
ATOM     13  C   UNL     1      15.920  -7.305 -30.484  1.00  0.00     0.015 C 
ATOM     14  C   UNL     1      16.583  -4.880 -31.823  1.00  0.00     0.079 C 
ATOM     15  C   UNL     1      14.902  -6.545 -30.913  1.00  0.00     0.079 C 
ATOM     16  C   UNL     1      15.143  -5.248 -31.628  1.00  0.00     0.199 C 
ATOM     17  N   UNL     1      14.167  -4.496 -32.052  1.00  0.00    -0.235 N 
ATOM     18  C   UNL     1      14.399  -3.151 -32.669  1.00  0.00     0.433 C 
ATOM     19  C   UNL     1      12.731  -4.910 -31.960  1.00  0.00     0.433 C 
BRANCH  10  20
ATOM     20  C   UNL     1      18.072  -9.001 -29.530  1.00  0.00    -0.017 A 
ATOM     21  C   UNL     1      17.127  -9.901 -30.042  1.00  0.00     0.009 A 
ATOM     22  C   UNL     1      18.752  -9.316 -28.346  1.00  0.00     0.009 A 
ATOM     23  C   UNL     1      16.875 -11.105 -29.382  1.00  0.00     0.001 A 
ATOM     24  C   UNL     1      18.496 -10.519 -27.688  1.00  0.00     0.001 A 
ATOM     25  C   UNL     1      17.560 -11.413 -28.207  1.00  0.00     0.000 A 
ENDBRANCH  10  20
ENDBRANCH   4  10
TORSDOF 3
ENDMDL
MODEL 8
REMARK minimizedAffinity -4.80480623
REMARK minimizedRMSD -1
REMARK SMILES CN(C)c1ccc(C(=C2C=CC(=[N+](C)C)C=C2)c2ccccc2)cc1
REMARK SMILES IDX 4 1 5 2 6 3 7 4 24 5 25 6 2 7 1 8 3 9 8 10 9 11 10 12 17 13
REMARK SMILES IDX 11 14 16 15 12 16 13 17 14 18 15 19 18 20 19 21 23 22 20 23
REMARK SMILES IDX 22 24 21 25
REMARK H PARENT
ROOT
ATOM      1  C   UNL     1      14.395  -8.555 -36.377  1.00  0.00     0.036 A 
ATOM      2  C   UNL     1      13.995  -9.629 -35.561  1.00  0.00     0.026 A 
ATOM      3  C   UNL     1      13.867  -9.509 -34.169  1.00  0.00     0.011 A 
ATOM      4  C   UNL     1      14.151  -8.299 -33.538  1.00  0.00    -0.017 A 
ATOM      5  C   UNL     1      14.554  -7.215 -34.317  1.00  0.00     0.011 A 
ATOM      6  C   UNL     1      14.678  -7.350 -35.707  1.00  0.00     0.026 A 
ENDROOT
BRANCH   1   7
ATOM      7  N   UNL     1      14.547  -8.689 -37.762  1.00  0.00    -0.378 N 
ATOM      8  C   UNL     1      15.823  -8.315 -38.374  1.00  0.00     0.143 C 
ATOM      9  C   UNL     1      13.375  -8.515 -38.621  1.00  0.00     0.143 C 
ENDBRANCH   1   7
BRANCH   4  10
ATOM     10  C   UNL     1      14.044  -8.171 -32.061  1.00  0.00    -0.004 C 
ATOM     11  C   UNL     1      12.907  -7.677 -31.484  1.00  0.00    -0.017 C 
ATOM     12  C   UNL     1      11.755  -7.257 -32.287  1.00  0.00     0.015 C 
ATOM     13  C   UNL     1      12.776  -7.539 -30.031  1.00  0.00     0.015 C 
ATOM     14  C   UNL     1      10.632  -6.770 -31.742  1.00  0.00     0.079 C 
ATOM     15  C   UNL     1      11.670  -7.057 -29.447  1.00  0.00     0.079 C 
ATOM     16  C   UNL     1      10.484  -6.623 -30.257  1.00  0.00     0.199 C 
ATOM     17  N   UNL     1       9.400  -6.152 -29.708  1.00  0.00    -0.235 N 
ATOM     18  C   UNL     1       8.258  -5.617 -30.514  1.00  0.00     0.433 C 
ATOM     19  C   UNL     1       9.204  -6.106 -28.224  1.00  0.00     0.433 C 
BRANCH  10  20
ATOM     20  C   UNL     1      15.201  -8.593 -31.227  1.00  0.00    -0.017 A 
ATOM     21  C   UNL     1      16.219  -7.680 -30.919  1.00  0.00     0.009 A 
ATOM     22  C   UNL     1      15.285  -9.905 -30.746  1.00  0.00     0.009 A 
ATOM     23  C   UNL     1      17.301  -8.075 -30.131  1.00  0.00     0.001 A 
ATOM     24  C   UNL     1      16.369 -10.297 -29.959  1.00  0.00     0.001 A 
ATOM     25  C   UNL     1      17.374  -9.382 -29.651  1.00  0.00     0.000 A 
ENDBRANCH  10  20
ENDBRANCH   4  10
TORSDOF 3
ENDMDL
MODEL 9
REMARK minimizedAffinity -4.64815998
REMARK minimizedRMSD -1
REMARK SMILES CN(C)c1ccc(C(=C2C=CC(=[N+](C)C)C=C2)c2ccccc2)cc1
REMARK SMILES IDX 4 1 5 2 6 3 7 4 24 5 25 6 2 7 1 8 3 9 8 10 9 11 10 12 17 13
REMARK SMILES IDX 11 14 16 15 12 16 13 17 14 18 15 19 18 20 19 21 23 22 20 23
REMARK SMILES IDX 22 24 21 25
REMARK H PARENT
ROOT
ATOM      1  C   UNL     1      26.824  -5.337 -24.049  1.00  0.00     0.036 A 
ATOM      2  C   UNL     1      26.657  -4.687 -22.812  1.00  0.00     0.026 A 
ATOM      3  C   UNL     1      27.293  -5.123 -21.641  1.00  0.00     0.011 A 
ATOM      4  C   UNL     1      28.117  -6.247 -21.665  1.00  0.00    -0.017 A 
ATOM      5  C   UNL     1      28.302  -6.917 -22.873  1.00  0.00     0.011 A 
ATOM      6  C   UNL     1      27.659  -6.469 -24.037  1.00  0.00     0.026 A 
ENDROOT
BRANCH   1   7
ATOM      7  N   UNL     1      26.164  -4.911 -25.209  1.00  0.00    -0.378 N 
ATOM      8  C   UNL     1      26.650  -5.374 -26.510  1.00  0.00     0.143 C 
ATOM      9  C   UNL     1      25.535  -3.590 -25.218  1.00  0.00     0.143 C 
ENDBRANCH   1   7
BRANCH   4  10
ATOM     10  C   UNL     1      28.774  -6.732 -20.423  1.00  0.00    -0.004 C 
ATOM     11  C   UNL     1      30.079  -6.425 -20.158  1.00  0.00    -0.017 C 
ATOM     12  C   UNL     1      30.882  -5.611 -21.075  1.00  0.00     0.015 C 
ATOM     13  C   UNL     1      30.750  -6.892 -18.942  1.00  0.00     0.015 C 
ATOM     14  C   UNL     1      32.163  -5.299 -20.835  1.00  0.00     0.079 C 
ATOM     15  C   UNL     1      32.029  -6.601 -18.664  1.00  0.00     0.079 C 
ATOM     16  C   UNL     1      32.862  -5.770 -19.595  1.00  0.00     0.199 C 
ATOM     17  N   UNL     1      34.106  -5.477 -19.343  1.00  0.00    -0.235 N 
ATOM     18  C   UNL     1      34.972  -4.742 -20.319  1.00  0.00     0.433 C 
ATOM     19  C   UNL     1      34.777  -5.850 -18.057  1.00  0.00     0.433 C 
BRANCH  10  20
ATOM     20  C   UNL     1      27.978  -7.558 -19.477  1.00  0.00    -0.017 A 
ATOM     21  C   UNL     1      27.679  -8.893 -19.784  1.00  0.00     0.009 A 
ATOM     22  C   UNL     1      27.517  -7.009 -18.273  1.00  0.00     0.009 A 
ATOM     23  C   UNL     1      26.937  -9.669 -18.892  1.00  0.00     0.001 A 
ATOM     24  C   UNL     1      26.775  -7.788 -17.384  1.00  0.00     0.001 A 
ATOM     25  C   UNL     1      26.487  -9.117 -17.693  1.00  0.00     0.000 A 
ENDBRANCH  10  20
ENDBRANCH   4  10
TORSDOF 3
ENDMDL
MODEL 10
REMARK minimizedAffinity -4.56069136
REMARK minimizedRMSD -1
REMARK SMILES CN(C)c1ccc(C(=C2C=CC(=[N+](C)C)C=C2)c2ccccc2)cc1
REMARK SMILES IDX 4 1 5 2 6 3 7 4 24 5 25 6 2 7 1 8 3 9 8 10 9 11 10 12 17 13
REMARK SMILES IDX 11 14 16 15 12 16 13 17 14 18 15 19 18 20 19 21 23 22 20 23
REMARK SMILES IDX 22 24 21 25
REMARK H PARENT
ROOT
ATOM      1  C   UNL     1      14.210  -5.094 -30.691  1.00  0.00     0.036 A 
ATOM      2  C   UNL     1      14.344  -6.345 -31.322  1.00  0.00     0.026 A 
ATOM      3  C   UNL     1      15.502  -7.127 -31.202  1.00  0.00     0.011 A 
ATOM      4  C   UNL     1      16.583  -6.672 -30.450  1.00  0.00    -0.017 A 
ATOM      5  C   UNL     1      16.486  -5.435 -29.815  1.00  0.00     0.011 A 
ATOM      6  C   UNL     1      15.321  -4.663 -29.944  1.00  0.00     0.026 A 
ENDROOT
BRANCH   1   7
ATOM      7  N   UNL     1      13.061  -4.306 -30.838  1.00  0.00    -0.378 N 
ATOM      8  C   UNL     1      12.652  -3.440 -29.731  1.00  0.00     0.143 C 
ATOM      9  C   UNL     1      11.967  -4.803 -31.673  1.00  0.00     0.143 C 
ENDBRANCH   1   7
BRANCH   4  10
ATOM     10  C   UNL     1      17.824  -7.483 -30.340  1.00  0.00    -0.004 C 
ATOM     11  C   UNL     1      19.007  -7.021 -30.848  1.00  0.00    -0.017 C 
ATOM     12  C   UNL     1      19.104  -5.720 -31.515  1.00  0.00     0.015 C 
ATOM     13  C   UNL     1      20.244  -7.801 -30.755  1.00  0.00     0.015 C 
ATOM     14  C   UNL     1      20.252  -5.249 -32.021  1.00  0.00     0.079 C 
ATOM     15  C   UNL     1      21.413  -7.365 -31.246  1.00  0.00     0.079 C 
ATOM     16  C   UNL     1      21.525  -6.036 -31.933  1.00  0.00     0.199 C 
ATOM     17  N   UNL     1      22.651  -5.595 -32.417  1.00  0.00    -0.235 N 
ATOM     18  C   UNL     1      22.747  -4.321 -33.197  1.00  0.00     0.433 C 
ATOM     19  C   UNL     1      23.946  -6.325 -32.235  1.00  0.00     0.433 C 
BRANCH  10  20
ATOM     20  C   UNL     1      17.749  -8.806 -29.666  1.00  0.00    -0.017 A 
ATOM     21  C   UNL     1      16.893  -9.801 -30.156  1.00  0.00     0.009 A 
ATOM     22  C   UNL     1      18.531  -9.067 -28.533  1.00  0.00     0.009 A 
ATOM     23  C   UNL     1      16.828 -11.045 -29.526  1.00  0.00     0.001 A 
ATOM     24  C   UNL     1      18.463 -10.312 -27.904  1.00  0.00     0.001 A 
ATOM     25  C   UNL     1      17.614 -11.300 -28.403  1.00  0.00     0.000 A 
ENDBRANCH  10  20
ENDBRANCH   4  10
TORSDOF 3
ENDMDL
MODEL 11
REMARK minimizedAffinity -4.44942713
REMARK minimizedRMSD -1
REMARK SMILES CN(C)c1ccc(C(=C2C=CC(=[N+](C)C)C=C2)c2ccccc2)cc1
REMARK SMILES IDX 4 1 5 2 6 3 7 4 24 5 25 6 2 7 1 8 3 9 8 10 9 11 10 12 17 13
REMARK SMILES IDX 11 14 16 15 12 16 13 17 14 18 15 19 18 20 19 21 23 22 20 23
REMARK SMILES IDX 22 24 21 25
REMARK H PARENT
ROOT
ATOM      1  C   UNL     1      16.995  -9.292 -30.011  1.00  0.00     0.036 A 
ATOM      2  C   UNL     1      16.006 -10.276 -30.202  1.00  0.00     0.026 A 
ATOM      3  C   UNL     1      14.863 -10.051 -30.984  1.00  0.00     0.011 A 
ATOM      4  C   UNL     1      14.662  -8.816 -31.597  1.00  0.00    -0.017 A 
ATOM      5  C   UNL     1      15.620  -7.818 -31.425  1.00  0.00     0.011 A 
ATOM      6  C   UNL     1      16.758  -8.057 -30.640  1.00  0.00     0.026 A 
ENDROOT
BRANCH   1   7
ATOM      7  N   UNL     1      18.120  -9.515 -29.208  1.00  0.00    -0.378 N 
ATOM      8  C   UNL     1      18.044 -10.523 -28.149  1.00  0.00     0.143 C 
ATOM      9  C   UNL     1      19.024  -8.397 -28.935  1.00  0.00     0.143 C 
ENDBRANCH   1   7
BRANCH   4  10
ATOM     10  C   UNL     1      13.440  -8.561 -32.404  1.00  0.00    -0.004 C 
ATOM     11  C   UNL     1      12.462  -7.723 -31.945  1.00  0.00    -0.017 C 
ATOM     12  C   UNL     1      12.573  -7.045 -30.651  1.00  0.00     0.015 C 
ATOM     13  C   UNL     1      11.248  -7.456 -32.720  1.00  0.00     0.015 C 
ATOM     14  C   UNL     1      11.626  -6.221 -30.181  1.00  0.00     0.079 C 
ATOM     15  C   UNL     1      10.278  -6.638 -32.287  1.00  0.00     0.079 C 
ATOM     16  C   UNL     1      10.379  -5.939 -30.964  1.00  0.00     0.199 C 
ATOM     17  N   UNL     1       9.447  -5.140 -30.526  1.00  0.00    -0.235 N 
ATOM     18  C   UNL     1       9.491  -4.526 -29.161  1.00  0.00     0.433 C 
ATOM     19  C   UNL     1       8.253  -4.768 -31.349  1.00  0.00     0.433 C 
BRANCH  10  20
ATOM     20  C   UNL     1      13.307  -9.238 -33.722  1.00  0.00    -0.017 A 
ATOM     21  C   UNL     1      14.173  -8.911 -34.774  1.00  0.00     0.009 A 
ATOM     22  C   UNL     1      12.313 -10.204 -33.923  1.00  0.00     0.009 A 
ATOM     23  C   UNL     1      14.051  -9.552 -36.008  1.00  0.00     0.001 A 
ATOM     24  C   UNL     1      12.194 -10.842 -35.158  1.00  0.00     0.001 A 
ATOM     25  C   UNL     1      13.063 -10.517 -36.199  1.00  0.00     0.000 A 
ENDBRANCH  10  20
ENDBRANCH   4  10
TORSDOF 3
ENDMDL
MODEL 12
REMARK minimizedAffinity -4.36920452
REMARK minimizedRMSD -1
REMARK SMILES CN(C)c1ccc(C(=C2C=CC(=[N+](C)C)C=C2)c2ccccc2)cc1
REMARK SMILES IDX 4 1 5 2 6 3 7 4 24 5 25 6 2 7 1 8 3 9 8 10 9 11 10 12 17 13
REMARK SMILES IDX 11 14 16 15 12 16 13 17 14 18 15 19 18 20 19 21 23 22 20 23
REMARK SMILES IDX 22 24 21 25
REMARK H PARENT
ROOT
ATOM      1  C   UNL     1      16.850  -9.952 -29.692  1.00  0.00     0.036 A 
ATOM      2  C   UNL     1      16.914  -8.621 -30.145  1.00  0.00     0.026 A 
ATOM      3  C   UNL     1      15.948  -8.071 -31.001  1.00  0.00     0.011 A 
ATOM      4  C   UNL     1      14.881  -8.847 -31.449  1.00  0.00    -0.017 A 
ATOM      5  C   UNL     1      14.789 -10.171 -31.023  1.00  0.00     0.011 A 
ATOM      6  C   UNL     1      15.763 -10.708 -30.168  1.00  0.00     0.026 A 
ENDROOT
BRANCH   1   7
ATOM      7  N   UNL     1      17.832 -10.503 -28.860  1.00  0.00    -0.378 N 
ATOM      8  C   UNL     1      17.597 -11.819 -28.264  1.00  0.00     0.143 C 
ATOM      9  C   UNL     1      18.668  -9.603 -28.064  1.00  0.00     0.143 C 
ENDBRANCH   1   7
BRANCH   4  10
ATOM     10  C   UNL     1      13.869  -8.279 -32.378  1.00  0.00    -0.004 C 
ATOM     11  C   UNL     1      12.747  -7.664 -31.895  1.00  0.00    -0.017 C 
ATOM     12  C   UNL     1      12.495  -7.536 -30.457  1.00  0.00     0.015 C 
ATOM     13  C   UNL     1      11.733  -7.097 -32.789  1.00  0.00     0.015 C 
ATOM     14  C   UNL     1      11.403  -6.937 -29.963  1.00  0.00     0.079 C 
ATOM     15  C   UNL     1      10.627  -6.490 -32.335  1.00  0.00     0.079 C 
ATOM     16  C   UNL     1      10.357  -6.354 -30.866  1.00  0.00     0.199 C 
ATOM     17  N   UNL     1       9.288  -5.767 -30.405  1.00  0.00    -0.235 N 
ATOM     18  C   UNL     1       8.961  -5.724 -28.945  1.00  0.00     0.433 C 
ATOM     19  C   UNL     1       8.297  -5.086 -31.297  1.00  0.00     0.433 C 
BRANCH  10  20
ATOM     20  C   UNL     1      14.104  -8.396 -33.841  1.00  0.00    -0.017 A 
ATOM     21  C   UNL     1      14.629  -7.314 -34.561  1.00  0.00     0.009 A 
ATOM     22  C   UNL     1      13.800  -9.587 -34.513  1.00  0.00     0.009 A 
ATOM     23  C   UNL     1      14.856  -7.428 -35.934  1.00  0.00     0.001 A 
ATOM     24  C   UNL     1      14.026  -9.697 -35.886  1.00  0.00     0.001 A 
ATOM     25  C   UNL     1      14.556  -8.619 -36.594  1.00  0.00     0.000 A 
ENDBRANCH  10  20
ENDBRANCH   4  10
TORSDOF 3
ENDMDL
MODEL 13
REMARK minimizedAffinity -4.36095905
REMARK minimizedRMSD -1
REMARK SMILES CN(C)c1ccc(C(=C2C=CC(=[N+](C)C)C=C2)c2ccccc2)cc1
REMARK SMILES IDX 4 1 5 2 6 3 7 4 24 5 25 6 2 7 1 8 3 9 8 10 9 11 10 12 17 13
REMARK SMILES IDX 11 14 16 15 12 16 13 17 14 18 15 19 18 20 19 21 23 22 20 23
REMARK SMILES IDX 22 24 21 25
REMARK H PARENT
ROOT
ATOM      1  C   UNL     1      28.537  -8.306 -19.703  1.00  0.00     0.036 A 
ATOM      2  C   UNL     1      28.865  -6.939 -19.645  1.00  0.00     0.026 A 
ATOM      3  C   UNL     1      29.816  -6.357 -20.496  1.00  0.00     0.011 A 
ATOM      4  C   UNL     1      30.489  -7.136 -21.435  1.00  0.00    -0.017 A 
ATOM      5  C   UNL     1      30.192  -8.495 -21.517  1.00  0.00     0.011 A 
ATOM      6  C   UNL     1      29.238  -9.063 -20.659  1.00  0.00     0.026 A 
ENDROOT
BRANCH   1   7
ATOM      7  N   UNL     1      27.606  -8.886 -18.832  1.00  0.00    -0.378 N 
ATOM      8  C   UNL     1      26.703  -9.917 -19.346  1.00  0.00     0.143 C 
ATOM      9  C   UNL     1      27.063  -8.077 -17.740  1.00  0.00     0.143 C 
ENDBRANCH   1   7
BRANCH   4  10
ATOM     10  C   UNL     1      31.518  -6.532 -22.322  1.00  0.00    -0.004 C 
ATOM     11  C   UNL     1      31.196  -6.120 -23.585  1.00  0.00    -0.017 C 
ATOM     12  C   UNL     1      29.836  -6.250 -24.115  1.00  0.00     0.015 C 
ATOM     13  C   UNL     1      32.191  -5.524 -24.480  1.00  0.00     0.015 C 
ATOM     14  C   UNL     1      29.499  -5.853 -25.350  1.00  0.00     0.079 C 
ATOM     15  C   UNL     1      31.894  -5.112 -25.721  1.00  0.00     0.079 C 
ATOM     16  C   UNL     1      30.507  -5.242 -26.276  1.00  0.00     0.199 C 
ATOM     17  N   UNL     1      30.199  -4.848 -27.480  1.00  0.00    -0.235 N 
ATOM     18  C   UNL     1      28.844  -5.074 -28.077  1.00  0.00     0.433 C 
ATOM     19  C   UNL     1      31.172  -4.137 -28.368  1.00  0.00     0.433 C 
BRANCH  10  20
ATOM     20  C   UNL     1      32.905  -6.389 -21.804  1.00  0.00    -0.017 A 
ATOM     21  C   UNL     1      33.818  -7.445 -21.927  1.00  0.00     0.009 A 
ATOM     22  C   UNL     1      33.309  -5.199 -21.185  1.00  0.00     0.009 A 
ATOM     23  C   UNL     1      35.121  -7.307 -21.446  1.00  0.00     0.001 A 
ATOM     24  C   UNL     1      34.612  -5.064 -20.705  1.00  0.00     0.001 A 
ATOM     25  C   UNL     1      35.517  -6.117 -20.837  1.00  0.00     0.000 A 
ENDBRANCH  10  20
ENDBRANCH   4  10
TORSDOF 3
ENDMDL
MODEL 14
REMARK minimizedAffinity -4.32639551
REMARK minimizedRMSD -1
REMARK SMILES CN(C)c1ccc(C(=C2C=CC(=[N+](C)C)C=C2)c2ccccc2)cc1
REMARK SMILES IDX 4 1 5 2 6 3 7 4 24 5 25 6 2 7 1 8 3 9 8 10 9 11 10 12 17 13
REMARK SMILES IDX 11 14 16 15 12 16 13 17 14 18 15 19 18 20 19 21 23 22 20 23
REMARK SMILES IDX 22 24 21 25
REMARK H PARENT
ROOT
ATOM      1  C   UNL     1      12.361  -7.961 -31.915  1.00  0.00     0.036 A 
ATOM      2  C   UNL     1      13.343  -8.627 -32.673  1.00  0.00     0.026 A 
ATOM      3  C   UNL     1      14.652  -8.813 -32.208  1.00  0.00     0.011 A 
ATOM      4  C   UNL     1      15.033  -8.322 -30.960  1.00  0.00    -0.017 A 
ATOM      5  C   UNL     1      14.086  -7.654 -30.186  1.00  0.00     0.011 A 
ATOM      6  C   UNL     1      12.780  -7.474 -30.664  1.00  0.00     0.026 A 
ENDROOT
BRANCH   1   7
ATOM      7  N   UNL     1      11.062  -7.755 -32.398  1.00  0.00    -0.378 N 
ATOM      8  C   UNL     1      10.834  -6.701 -33.388  1.00  0.00     0.143 C 
ATOM      9  C   UNL     1       9.929  -8.028 -31.512  1.00  0.00     0.143 C 
ENDBRANCH   1   7
BRANCH   4  10
ATOM     10  C   UNL     1      16.427  -8.492 -30.472  1.00  0.00    -0.004 C 
ATOM     11  C   UNL     1      17.347  -7.492 -30.625  1.00  0.00    -0.017 C 
ATOM     12  C   UNL     1      17.004  -6.221 -31.270  1.00  0.00     0.015 C 
ATOM     13  C   UNL     1      18.727  -7.635 -30.155  1.00  0.00     0.015 C 
ATOM     14  C   UNL     1      17.890  -5.229 -31.431  1.00  0.00     0.079 C 
ATOM     15  C   UNL     1      19.643  -6.666 -30.296  1.00  0.00     0.079 C 
ATOM     16  C   UNL     1      19.306  -5.361 -30.954  1.00  0.00     0.199 C 
ATOM     17  N   UNL     1      20.182  -4.408 -31.101  1.00  0.00    -0.235 N 
ATOM     18  C   UNL     1      19.882  -3.148 -31.853  1.00  0.00     0.433 C 
ATOM     19  C   UNL     1      21.564  -4.490 -30.530  1.00  0.00     0.433 C 
BRANCH  10  20
ATOM     20  C   UNL     1      16.796  -9.773 -29.814  1.00  0.00    -0.017 A 
ATOM     21  C   UNL     1      17.682  -9.779 -28.728  1.00  0.00     0.009 A 
ATOM     22  C   UNL     1      16.264 -10.984 -30.276  1.00  0.00     0.009 A 
ATOM     23  C   UNL     1      18.023 -10.982 -28.107  1.00  0.00     0.001 A 
ATOM     24  C   UNL     1      16.608 -12.185 -29.653  1.00  0.00     0.001 A 
ATOM     25  C   UNL     1      17.485 -12.183 -28.569  1.00  0.00     0.000 A 
ENDBRANCH  10  20
ENDBRANCH   4  10
TORSDOF 3
ENDMDL
MODEL 15
REMARK minimizedAffinity -4.25860977
REMARK minimizedRMSD -1
REMARK SMILES CN(C)c1ccc(C(=C2C=CC(=[N+](C)C)C=C2)c2ccccc2)cc1
REMARK SMILES IDX 4 1 5 2 6 3 7 4 24 5 25 6 2 7 1 8 3 9 8 10 9 11 10 12 17 13
REMARK SMILES IDX 11 14 16 15 12 16 13 17 14 18 15 19 18 20 19 21 23 22 20 23
REMARK SMILES IDX 22 24 21 25
REMARK H PARENT
ROOT
ATOM      1  C   UNL     1      27.333  -8.705 -19.042  1.00  0.00     0.036 A 
ATOM      2  C   UNL     1      27.851  -7.399 -18.960  1.00  0.00     0.026 A 
ATOM      3  C   UNL     1      28.874  -6.941 -19.803  1.00  0.00     0.011 A 
ATOM      4  C   UNL     1      29.431  -7.790 -20.758  1.00  0.00    -0.017 A 
ATOM      5  C   UNL     1      28.944  -9.092 -20.864  1.00  0.00     0.011 A 
ATOM      6  C   UNL     1      27.920  -9.536 -20.014  1.00  0.00     0.026 A 
ENDROOT
BRANCH   1   7
ATOM      7  N   UNL     1      26.330  -9.163 -18.179  1.00  0.00    -0.378 N 
ATOM      8  C   UNL     1      25.130  -9.776 -18.752  1.00  0.00     0.143 C 
ATOM      9  C   UNL     1      26.124  -8.471 -16.906  1.00  0.00     0.143 C 
ENDBRANCH   1   7
BRANCH   4  10
ATOM     10  C   UNL     1      30.535  -7.321 -21.637  1.00  0.00    -0.004 C 
ATOM     11  C   UNL     1      31.826  -7.308 -21.189  1.00  0.00    -0.017 C 
ATOM     12  C   UNL     1      32.177  -7.751 -19.837  1.00  0.00     0.015 C 
ATOM     13  C   UNL     1      32.932  -6.849 -22.034  1.00  0.00     0.015 C 
ATOM     14  C   UNL     1      33.436  -7.745 -19.377  1.00  0.00     0.079 C 
ATOM     15  C   UNL     1      34.204  -6.829 -21.612  1.00  0.00     0.079 C 
ATOM     16  C   UNL     1      34.577  -7.279 -20.231  1.00  0.00     0.199 C 
ATOM     17  N   UNL     1      35.808  -7.266 -19.802  1.00  0.00    -0.235 N 
ATOM     18  C   UNL     1      36.172  -7.610 -18.391  1.00  0.00     0.433 C 
ATOM     19  C   UNL     1      36.964  -6.907 -20.684  1.00  0.00     0.433 C 
BRANCH  10  20
ATOM     20  C   UNL     1      30.201  -6.868 -23.014  1.00  0.00    -0.017 A 
ATOM     21  C   UNL     1      30.254  -5.506 -23.341  1.00  0.00     0.009 A 
ATOM     22  C   UNL     1      29.827  -7.797 -23.993  1.00  0.00     0.009 A 
ATOM     23  C   UNL     1      29.947  -5.083 -24.635  1.00  0.00     0.001 A 
ATOM     24  C   UNL     1      29.519  -7.370 -25.285  1.00  0.00     0.001 A 
ATOM     25  C   UNL     1      29.581  -6.015 -25.606  1.00  0.00     0.000 A 
ENDBRANCH  10  20
ENDBRANCH   4  10
TORSDOF 3
ENDMDL
MODEL 16
REMARK minimizedAffinity -4.11969662
REMARK minimizedRMSD -1
REMARK SMILES CN(C)c1ccc(C(=C2C=CC(=[N+](C)C)C=C2)c2ccccc2)cc1
REMARK SMILES IDX 4 1 5 2 6 3 7 4 24 5 25 6 2 7 1 8 3 9 8 10 9 11 10 12 17 13
REMARK SMILES IDX 11 14 16 15 12 16 13 17 14 18 15 19 18 20 19 21 23 22 20 23
REMARK SMILES IDX 22 24 21 25
REMARK H PARENT
ROOT
ATOM      1  C   UNL     1      21.298  -6.019 -30.891  1.00  0.00     0.036 A 
ATOM      2  C   UNL     1      21.130  -7.341 -31.345  1.00  0.00     0.026 A 
ATOM      3  C   UNL     1      19.951  -8.067 -31.125  1.00  0.00     0.011 A 
ATOM      4  C   UNL     1      18.892  -7.494 -30.424  1.00  0.00    -0.017 A 
ATOM      5  C   UNL     1      19.026  -6.187 -29.957  1.00  0.00     0.011 A 
ATOM      6  C   UNL     1      20.212  -5.473 -30.184  1.00  0.00     0.026 A 
ENDROOT
BRANCH   1   7
ATOM      7  N   UNL     1      22.489  -5.309 -31.090  1.00  0.00    -0.378 N 
ATOM      8  C   UNL     1      23.196  -5.456 -32.363  1.00  0.00     0.143 C 
ATOM      9  C   UNL     1      23.344  -5.030 -29.936  1.00  0.00     0.143 C 
ENDBRANCH   1   7
BRANCH   4  10
ATOM     10  C   UNL     1      17.648  -8.266 -30.164  1.00  0.00    -0.004 C 
ATOM     11  C   UNL     1      16.448  -7.844 -30.663  1.00  0.00    -0.017 C 
ATOM     12  C   UNL     1      16.333  -6.625 -31.469  1.00  0.00     0.015 C 
ATOM     13  C   UNL     1      15.207  -8.586 -30.420  1.00  0.00     0.015 C 
ATOM     14  C   UNL     1      15.166  -6.193 -31.967  1.00  0.00     0.079 C 
ATOM     15  C   UNL     1      14.021  -8.188 -30.901  1.00  0.00     0.079 C 
ATOM     16  C   UNL     1      13.889  -6.942 -31.726  1.00  0.00     0.199 C 
ATOM     17  N   UNL     1      12.745  -6.540 -32.202  1.00  0.00    -0.235 N 
ATOM     18  C   UNL     1      12.590  -5.242 -32.933  1.00  0.00     0.433 C 
ATOM     19  C   UNL     1      11.487  -7.339 -32.059  1.00  0.00     0.433 C 
BRANCH  10  20
ATOM     20  C   UNL     1      17.742  -9.507 -29.350  1.00  0.00    -0.017 A 
ATOM     21  C   UNL     1      18.524  -9.531 -28.187  1.00  0.00     0.009 A 
ATOM     22  C   UNL     1      17.053 -10.662 -29.740  1.00  0.00     0.009 A 
ATOM     23  C   UNL     1      18.606 -10.694 -27.420  1.00  0.00     0.001 A 
ATOM     24  C   UNL     1      17.137 -11.824 -28.971  1.00  0.00     0.001 A 
ATOM     25  C   UNL     1      17.912 -11.838 -27.811  1.00  0.00     0.000 A 
ENDBRANCH  10  20
ENDBRANCH   4  10
TORSDOF 3
ENDMDL
MODEL 17
REMARK minimizedAffinity -4.05550003
REMARK minimizedRMSD -1
REMARK SMILES CN(C)c1ccc(C(=C2C=CC(=[N+](C)C)C=C2)c2ccccc2)cc1
REMARK SMILES IDX 4 1 5 2 6 3 7 4 24 5 25 6 2 7 1 8 3 9 8 10 9 11 10 12 17 13
REMARK SMILES IDX 11 14 16 15 12 16 13 17 14 18 15 19 18 20 19 21 23 22 20 23
REMARK SMILES IDX 22 24 21 25
REMARK H PARENT
ROOT
ATOM      1  C   UNL     1      28.218 -11.464 -21.403  1.00  0.00     0.036 A 
ATOM      2  C   UNL     1      29.182 -10.786 -22.171  1.00  0.00     0.026 A 
ATOM      3  C   UNL     1      29.465  -9.424 -21.991  1.00  0.00     0.011 A 
ATOM      4  C   UNL     1      28.775  -8.682 -21.034  1.00  0.00    -0.017 A 
ATOM      5  C   UNL     1      27.810  -9.322 -20.258  1.00  0.00     0.011 A 
ATOM      6  C   UNL     1      27.537 -10.685 -20.450  1.00  0.00     0.026 A 
ENDROOT
BRANCH   1   7
ATOM      7  N   UNL     1      27.921 -12.817 -21.607  1.00  0.00    -0.378 N 
ATOM      8  C   UNL     1      28.985 -13.808 -21.434  1.00  0.00     0.143 C 
ATOM      9  C   UNL     1      26.895 -13.175 -22.587  1.00  0.00     0.143 C 
ENDBRANCH   1   7
BRANCH   4  10
ATOM     10  C   UNL     1      29.050  -7.232 -20.856  1.00  0.00    -0.004 C 
ATOM     11  C   UNL     1      30.123  -6.811 -20.121  1.00  0.00    -0.017 C 
ATOM     12  C   UNL     1      31.042  -7.759 -19.486  1.00  0.00     0.015 C 
ATOM     13  C   UNL     1      30.415  -5.388 -19.928  1.00  0.00     0.015 C 
ATOM     14  C   UNL     1      32.100  -7.367 -18.761  1.00  0.00     0.079 C 
ATOM     15  C   UNL     1      31.463  -4.955 -19.213  1.00  0.00     0.079 C 
ATOM     16  C   UNL     1      32.411  -5.915 -18.556  1.00  0.00     0.199 C 
ATOM     17  N   UNL     1      33.434  -5.514 -17.856  1.00  0.00    -0.235 N 
ATOM     18  C   UNL     1      34.319  -6.463 -17.109  1.00  0.00     0.433 C 
ATOM     19  C   UNL     1      33.813  -4.070 -17.739  1.00  0.00     0.433 C 
BRANCH  10  20
ATOM     20  C   UNL     1      28.130  -6.253 -21.493  1.00  0.00    -0.017 A 
ATOM     21  C   UNL     1      27.054  -5.721 -20.771  1.00  0.00     0.009 A 
ATOM     22  C   UNL     1      28.330  -5.857 -22.822  1.00  0.00     0.009 A 
ATOM     23  C   UNL     1      26.195  -4.796 -21.368  1.00  0.00     0.001 A 
ATOM     24  C   UNL     1      27.469  -4.934 -23.417  1.00  0.00     0.001 A 
ATOM     25  C   UNL     1      26.405  -4.403 -22.689  1.00  0.00     0.000 A 
ENDBRANCH  10  20
ENDBRANCH   4  10
TORSDOF 3
ENDMDL
MODEL 18
REMARK minimizedAffinity -4.04656029
REMARK minimizedRMSD -1
REMARK SMILES CN(C)c1ccc(C(=C2C=CC(=[N+](C)C)C=C2)c2ccccc2)cc1
REMARK SMILES IDX 4 1 5 2 6 3 7 4 24 5 25 6 2 7 1 8 3 9 8 10 9 11 10 12 17 13
REMARK SMILES IDX 11 14 16 15 12 16 13 17 14 18 15 19 18 20 19 21 23 22 20 23
REMARK SMILES IDX 22 24 21 25
REMARK H PARENT
ROOT
ATOM      1  C   UNL     1      12.703 -20.086 -36.884  1.00  0.00     0.036 A 
ATOM      2  C   UNL     1      13.137 -19.784 -35.579  1.00  0.00     0.026 A 
ATOM      3  C   UNL     1      12.329 -19.992 -34.451  1.00  0.00     0.011 A 
ATOM      4  C   UNL     1      11.040 -20.503 -34.594  1.00  0.00    -0.017 A 
ATOM      5  C   UNL     1      10.578 -20.809 -35.872  1.00  0.00     0.011 A 
ATOM      6  C   UNL     1      11.397 -20.595 -36.991  1.00  0.00     0.026 A 
ENDROOT
BRANCH   1   7
ATOM      7  N   UNL     1      13.505 -19.850 -38.007  1.00  0.00    -0.378 N 
ATOM      8  C   UNL     1      13.785 -20.958 -38.922  1.00  0.00     0.143 C 
ATOM      9  C   UNL     1      14.557 -18.836 -37.923  1.00  0.00     0.143 C 
ENDBRANCH   1   7
BRANCH   4  10
ATOM     10  C   UNL     1      10.168 -20.701 -33.406  1.00  0.00    -0.004 C 
ATOM     11  C   UNL     1       9.890 -21.958 -32.947  1.00  0.00    -0.017 C 
ATOM     12  C   UNL     1      10.435 -23.154 -33.596  1.00  0.00     0.015 C 
ATOM     13  C   UNL     1       9.033 -22.181 -31.780  1.00  0.00     0.015 C 
ATOM     14  C   UNL     1      10.174 -24.395 -33.162  1.00  0.00     0.079 C 
ATOM     15  C   UNL     1       8.749 -23.406 -31.314  1.00  0.00     0.079 C 
ATOM     16  C   UNL     1       9.298 -24.638 -31.970  1.00  0.00     0.199 C 
ATOM     17  N   UNL     1       9.034 -25.837 -31.532  1.00  0.00    -0.235 N 
ATOM     18  C   UNL     1       9.489 -27.072 -32.246  1.00  0.00     0.433 C 
ATOM     19  C   UNL     1       8.252 -26.082 -30.279  1.00  0.00     0.433 C 
BRANCH  10  20
ATOM     20  C   UNL     1       9.606 -19.501 -32.731  1.00  0.00    -0.017 A 
ATOM     21  C   UNL     1       8.928 -18.525 -33.475  1.00  0.00     0.009 A 
ATOM     22  C   UNL     1       9.753 -19.334 -31.348  1.00  0.00     0.009 A 
ATOM     23  C   UNL     1       8.396 -17.403 -32.839  1.00  0.00     0.001 A 
ATOM     24  C   UNL     1       9.220 -18.210 -30.716  1.00  0.00     0.001 A 
ATOM     25  C   UNL     1       8.540 -17.247 -31.461  1.00  0.00     0.000 A 
ENDBRANCH  10  20
ENDBRANCH   4  10
TORSDOF 3
ENDMDL
MODEL 19
REMARK minimizedAffinity -3.89334655
REMARK minimizedRMSD -1
REMARK SMILES CN(C)c1ccc(C(=C2C=CC(=[N+](C)C)C=C2)c2ccccc2)cc1
REMARK SMILES IDX 4 1 5 2 6 3 7 4 24 5 25 6 2 7 1 8 3 9 8 10 9 11 10 12 17 13
REMARK SMILES IDX 11 14 16 15 12 16 13 17 14 18 15 19 18 20 19 21 23 22 20 23
REMARK SMILES IDX 22 24 21 25
REMARK H PARENT
ROOT
ATOM      1  C   UNL     1      14.050 -23.742 -40.205  1.00  0.00     0.036 A 
ATOM      2  C   UNL     1      12.701 -23.415 -40.434  1.00  0.00     0.026 A 
ATOM      3  C   UNL     1      12.071 -22.335 -39.800  1.00  0.00     0.011 A 
ATOM      4  C   UNL     1      12.774 -21.543 -38.894  1.00  0.00    -0.017 A 
ATOM      5  C   UNL     1      14.112 -21.841 -38.640  1.00  0.00     0.011 A 
ATOM      6  C   UNL     1      14.729 -22.926 -39.282  1.00  0.00     0.026 A 
ENDROOT
BRANCH   1   7
ATOM      7  N   UNL     1      14.665 -24.839 -40.821  1.00  0.00    -0.378 N 
ATOM      8  C   UNL     1      14.126 -26.179 -40.582  1.00  0.00     0.143 C 
ATOM      9  C   UNL     1      16.105 -24.788 -41.078  1.00  0.00     0.143 C 
ENDBRANCH   1   7
BRANCH   4  10
ATOM     10  C   UNL     1      12.106 -20.413 -38.197  1.00  0.00    -0.004 C 
ATOM     11  C   UNL     1      12.246 -19.131 -38.653  1.00  0.00    -0.017 C 
ATOM     12  C   UNL     1      13.051 -18.818 -39.837  1.00  0.00     0.015 C 
ATOM     13  C   UNL     1      11.600 -17.999 -37.984  1.00  0.00     0.015 C 
ATOM     14  C   UNL     1      13.202 -17.569 -40.300  1.00  0.00     0.079 C 
ATOM     15  C   UNL     1      11.725 -16.736 -38.416  1.00  0.00     0.079 C 
ATOM     16  C   UNL     1      12.547 -16.402 -39.625  1.00  0.00     0.199 C 
ATOM     17  N   UNL     1      12.681 -15.181 -40.061  1.00  0.00    -0.235 N 
ATOM     18  C   UNL     1      13.586 -14.828 -41.200  1.00  0.00     0.433 C 
ATOM     19  C   UNL     1      11.941 -14.026 -39.459  1.00  0.00     0.433 C 
BRANCH  10  20
ATOM     20  C   UNL     1      11.283 -20.708 -36.994  1.00  0.00    -0.017 A 
ATOM     21  C   UNL     1      11.873 -20.729 -35.723  1.00  0.00     0.009 A 
ATOM     22  C   UNL     1       9.913 -20.972 -37.122  1.00  0.00     0.009 A 
ATOM     23  C   UNL     1      11.098 -21.000 -34.594  1.00  0.00     0.001 A 
ATOM     24  C   UNL     1       9.142 -21.244 -35.991  1.00  0.00     0.001 A 
ATOM     25  C   UNL     1       9.734 -21.255 -34.728  1.00  0.00     0.000 A 
ENDBRANCH  10  20
ENDBRANCH   4  10
TORSDOF 3
ENDMDL
MODEL 20
REMARK minimizedAffinity -3.80167198
REMARK minimizedRMSD -1
REMARK SMILES CN(C)c1ccc(C(=C2C=CC(=[N+](C)C)C=C2)c2ccccc2)cc1
REMARK SMILES IDX 4 1 5 2 6 3 7 4 24 5 25 6 2 7 1 8 3 9 8 10 9 11 10 12 17 13
REMARK SMILES IDX 11 14 16 15 12 16 13 17 14 18 15 19 18 20 19 21 23 22 20 23
REMARK SMILES IDX 22 24 21 25
REMARK H PARENT
ROOT
ATOM      1  C   UNL     1      27.763  -7.868 -19.036  1.00  0.00     0.036 A 
ATOM      2  C   UNL     1      28.310  -6.666 -18.550  1.00  0.00     0.026 A 
ATOM      3  C   UNL     1      29.543  -6.167 -18.995  1.00  0.00     0.011 A 
ATOM      4  C   UNL     1      30.286  -6.870 -19.942  1.00  0.00    -0.017 A 
ATOM      5  C   UNL     1      29.775  -8.066 -20.442  1.00  0.00     0.011 A 
ATOM      6  C   UNL     1      28.540  -8.553 -19.988  1.00  0.00     0.026 A 
ENDROOT
BRANCH   1   7
ATOM      7  N   UNL     1      26.544  -8.374 -18.568  1.00  0.00    -0.378 N 
ATOM      8  C   UNL     1      26.360  -8.555 -17.127  1.00  0.00     0.143 C 
ATOM      9  C   UNL     1      25.799  -9.311 -19.409  1.00  0.00     0.143 C 
ENDBRANCH   1   7
BRANCH   4  10
ATOM     10  C   UNL     1      31.606  -6.362 -20.399  1.00  0.00    -0.004 C 
ATOM     11  C   UNL     1      32.678  -6.343 -19.550  1.00  0.00    -0.017 C 
ATOM     12  C   UNL     1      32.576  -6.819 -18.168  1.00  0.00     0.015 C 
ATOM     13  C   UNL     1      33.989  -5.845 -19.975  1.00  0.00     0.015 C 
ATOM     14  C   UNL     1      33.613  -6.808 -17.320  1.00  0.00     0.079 C 
ATOM     15  C   UNL     1      35.052  -5.819 -19.158  1.00  0.00     0.079 C 
ATOM     16  C   UNL     1      34.961  -6.303 -17.741  1.00  0.00     0.199 C 
ATOM     17  N   UNL     1      35.982  -6.285 -16.932  1.00  0.00    -0.235 N 
ATOM     18  C   UNL     1      35.870  -6.663 -15.487  1.00  0.00     0.433 C 
ATOM     19  C   UNL     1      37.355  -5.885 -17.376  1.00  0.00     0.433 C 
BRANCH  10  20
ATOM     20  C   UNL     1      31.733  -5.874 -21.798  1.00  0.00    -0.017 A 
ATOM     21  C   UNL     1      31.399  -4.551 -22.118  1.00  0.00     0.009 A 
ATOM     22  C   UNL     1      32.183  -6.735 -22.808  1.00  0.00     0.009 A 
ATOM     23  C   UNL     1      31.525  -4.094 -23.431  1.00  0.00     0.001 A 
ATOM     24  C   UNL     1      32.306  -6.274 -24.120  1.00  0.00     0.001 A 
ATOM     25  C   UNL     1      31.979  -4.954 -24.430  1.00  0.00     0.000 A 
ENDBRANCH  10  20
ENDBRANCH   4  10
TORSDOF 3
ENDMDL
