MODEL 1
REMARK minimizedAffinity -5.70069981
REMARK minimizedRMSD -1
REMARK SMILES CN(C)c1ccc(C(=C2C=CC(=[N+](C)C)C=C2)c2ccccc2)cc1
REMARK SMILES IDX 4 1 5 2 6 3 7 4 24 5 25 6 2 7 1 8 3 9 8 10 9 11 10 12 17 13
REMARK SMILES IDX 11 14 16 15 12 16 13 17 14 18 15 19 18 20 19 21 23 22 20 23
REMARK SMILES IDX 22 24 21 25
REMARK H PARENT
ROOT
ATOM      1  C   UNL     1      21.845 -60.423  51.294  1.00  0.00     0.036 A 
ATOM      2  C   UNL     1      21.070 -59.249  51.244  1.00  0.00     0.026 A 
ATOM      3  C   UNL     1      21.471 -58.057  51.865  1.00  0.00     0.011 A 
ATOM      4  C   UNL     1      22.668 -58.002  52.576  1.00  0.00    -0.017 A 
ATOM      5  C   UNL     1      23.458 -59.147  52.648  1.00  0.00     0.011 A 
ATOM      6  C   UNL     1      23.045 -60.333  52.023  1.00  0.00     0.026 A 
ENDROOT
BRANCH   1   7
ATOM      7  N   UNL     1      21.426 -61.618  50.696  1.00  0.00    -0.378 N 
ATOM      8  C   UNL     1      20.075 -61.692  50.135  1.00  0.00     0.143 C 
ATOM      9  C   UNL     1      21.957 -62.884  51.201  1.00  0.00     0.143 C 
ENDBRANCH   1   7
BRANCH   4  10
ATOM     10  C   UNL     1      23.087 -56.749  53.258  1.00  0.00    -0.004 C 
ATOM     11  C   UNL     1      22.579 -56.420  54.484  1.00  0.00    -0.017 C 
ATOM     12  C   UNL     1      21.612 -57.277  55.174  1.00  0.00     0.015 C 
ATOM     13  C   UNL     1      22.974 -55.191  55.178  1.00  0.00     0.015 C 
ATOM     14  C   UNL     1      21.101 -56.973  56.376  1.00  0.00     0.079 C 
ATOM     15  C   UNL     1      22.488 -54.851  56.380  1.00  0.00     0.079 C 
ATOM     16  C   UNL     1      21.496 -55.719  57.097  1.00  0.00     0.199 C 
ATOM     17  N   UNL     1      21.012 -55.405  58.265  1.00  0.00    -0.235 N 
ATOM     18  C   UNL     1      19.942 -56.211  58.935  1.00  0.00     0.433 C 
ATOM     19  C   UNL     1      21.484 -54.213  59.039  1.00  0.00     0.433 C 
BRANCH  10  20
ATOM     20  C   UNL     1      24.069 -55.864  52.577  1.00  0.00    -0.017 A 
ATOM     21  C   UNL     1      25.440 -56.144  52.649  1.00  0.00     0.009 A 
ATOM     22  C   UNL     1      23.631 -54.743  51.861  1.00  0.00     0.009 A 
ATOM     23  C   UNL     1      26.360 -55.316  52.004  1.00  0.00     0.001 A 
ATOM     24  C   UNL     1      24.554 -53.917  51.217  1.00  0.00     0.001 A 
ATOM     25  C   UNL     1      25.917 -54.205  51.288  1.00  0.00     0.000 A 
ENDBRANCH  10  20
ENDBRANCH   4  10
TORSDOF 3
ENDMDL
MODEL 2
REMARK minimizedAffinity -5.56286287
REMARK minimizedRMSD -1
REMARK SMILES CN(C)c1ccc(C(=C2C=CC(=[N+](C)C)C=C2)c2ccccc2)cc1
REMARK SMILES IDX 4 1 5 2 6 3 7 4 24 5 25 6 2 7 1 8 3 9 8 10 9 11 10 12 17 13
REMARK SMILES IDX 11 14 16 15 12 16 13 17 14 18 15 19 18 20 19 21 23 22 20 23
REMARK SMILES IDX 22 24 21 25
REMARK H PARENT
ROOT
ATOM      1  C   UNL     1      22.980 -56.232  52.976  1.00  0.00     0.036 A 
ATOM      2  C   UNL     1      22.890 -55.336  54.058  1.00  0.00     0.026 A 
ATOM      3  C   UNL     1      23.398 -54.030  53.997  1.00  0.00     0.011 A 
ATOM      4  C   UNL     1      24.033 -53.575  52.844  1.00  0.00    -0.017 A 
ATOM      5  C   UNL     1      24.144 -54.438  51.755  1.00  0.00     0.011 A 
ATOM      6  C   UNL     1      23.631 -55.742  51.830  1.00  0.00     0.026 A 
ENDROOT
BRANCH   1   7
ATOM      7  N   UNL     1      22.495 -57.543  53.054  1.00  0.00    -0.378 N 
ATOM      8  C   UNL     1      23.243 -58.529  53.836  1.00  0.00     0.143 C 
ATOM      9  C   UNL     1      21.753 -58.089  51.916  1.00  0.00     0.143 C 
ENDBRANCH   1   7
BRANCH   4  10
ATOM     10  C   UNL     1      24.598 -52.201  52.781  1.00  0.00    -0.004 C 
ATOM     11  C   UNL     1      25.910 -51.971  53.090  1.00  0.00    -0.017 C 
ATOM     12  C   UNL     1      26.809 -53.057  53.490  1.00  0.00     0.015 C 
ATOM     13  C   UNL     1      26.491 -50.627  53.038  1.00  0.00     0.015 C 
ATOM     14  C   UNL     1      28.098 -52.853  53.798  1.00  0.00     0.079 C 
ATOM     15  C   UNL     1      27.775 -50.382  53.336  1.00  0.00     0.079 C 
ATOM     16  C   UNL     1      28.705 -51.483  53.749  1.00  0.00     0.199 C 
ATOM     17  N   UNL     1      29.956 -51.265  54.043  1.00  0.00    -0.235 N 
ATOM     18  C   UNL     1      30.860 -52.341  54.560  1.00  0.00     0.433 C 
ATOM     19  C   UNL     1      30.596 -49.920  53.890  1.00  0.00     0.433 C 
BRANCH  10  20
ATOM     20  C   UNL     1      23.703 -51.085  52.375  1.00  0.00    -0.017 A 
ATOM     21  C   UNL     1      22.451 -51.354  51.805  1.00  0.00     0.009 A 
ATOM     22  C   UNL     1      24.106 -49.755  52.555  1.00  0.00     0.009 A 
ATOM     23  C   UNL     1      21.610 -50.306  51.431  1.00  0.00     0.001 A 
ATOM     24  C   UNL     1      23.262 -48.709  52.179  1.00  0.00     0.001 A 
ATOM     25  C   UNL     1      22.015 -48.985  51.619  1.00  0.00     0.000 A 
ENDBRANCH  10  20
ENDBRANCH   4  10
TORSDOF 3
ENDMDL
MODEL 3
REMARK minimizedAffinity -5.37462711
REMARK minimizedRMSD -1
REMARK SMILES CN(C)c1ccc(C(=C2C=CC(=[N+](C)C)C=C2)c2ccccc2)cc1
REMARK SMILES IDX 4 1 5 2 6 3 7 4 24 5 25 6 2 7 1 8 3 9 8 10 9 11 10 12 17 13
REMARK SMILES IDX 11 14 16 15 12 16 13 17 14 18 15 19 18 20 19 21 23 22 20 23
REMARK SMILES IDX 22 24 21 25
REMARK H PARENT
ROOT
ATOM      1  C   UNL     1      29.092 -55.306  53.046  1.00  0.00     0.036 A 
ATOM      2  C   UNL     1      28.425 -54.625  54.081  1.00  0.00     0.026 A 
ATOM      3  C   UNL     1      27.063 -54.296  54.009  1.00  0.00     0.011 A 
ATOM      4  C   UNL     1      26.318 -54.630  52.880  1.00  0.00    -0.017 A 
ATOM      5  C   UNL     1      26.949 -55.302  51.834  1.00  0.00     0.011 A 
ATOM      6  C   UNL     1      28.311 -55.624  51.920  1.00  0.00     0.026 A 
ENDROOT
BRANCH   1   7
ATOM      7  N   UNL     1      30.458 -55.607  53.113  1.00  0.00    -0.378 N 
ATOM      8  C   UNL     1      30.868 -56.938  53.564  1.00  0.00     0.143 C 
ATOM      9  C   UNL     1      31.403 -54.532  53.418  1.00  0.00     0.143 C 
ENDBRANCH   1   7
BRANCH   4  10
ATOM     10  C   UNL     1      24.881 -54.261  52.784  1.00  0.00    -0.004 C 
ATOM     11  C   UNL     1      24.507 -52.973  52.521  1.00  0.00    -0.017 C 
ATOM     12  C   UNL     1      25.495 -51.909  52.320  1.00  0.00     0.015 C 
ATOM     13  C   UNL     1      23.098 -52.583  52.423  1.00  0.00     0.015 C 
ATOM     14  C   UNL     1      25.150 -50.640  52.062  1.00  0.00     0.079 C 
ATOM     15  C   UNL     1      22.712 -51.325  52.165  1.00  0.00     0.079 C 
ATOM     16  C   UNL     1      23.712 -50.227  51.959  1.00  0.00     0.199 C 
ATOM     17  N   UNL     1      23.357 -48.999  51.708  1.00  0.00    -0.235 N 
ATOM     18  C   UNL     1      24.346 -47.879  51.610  1.00  0.00     0.433 C 
ATOM     19  C   UNL     1      21.929 -48.601  51.495  1.00  0.00     0.433 C 
BRANCH  10  20
ATOM     20  C   UNL     1      23.861 -55.325  52.983  1.00  0.00    -0.017 A 
ATOM     21  C   UNL     1      23.223 -55.470  54.222  1.00  0.00     0.009 A 
ATOM     22  C   UNL     1      23.534 -56.195  51.934  1.00  0.00     0.009 A 
ATOM     23  C   UNL     1      22.261 -56.465  54.405  1.00  0.00     0.001 A 
ATOM     24  C   UNL     1      22.573 -57.189  52.121  1.00  0.00     0.001 A 
ATOM     25  C   UNL     1      21.936 -57.322  53.354  1.00  0.00     0.000 A 
ENDBRANCH  10  20
ENDBRANCH   4  10
TORSDOF 3
ENDMDL
MODEL 4
REMARK minimizedAffinity -5.30286217
REMARK minimizedRMSD -1
REMARK SMILES CN(C)c1ccc(C(=C2C=CC(=[N+](C)C)C=C2)c2ccccc2)cc1
REMARK SMILES IDX 4 1 5 2 6 3 7 4 24 5 25 6 2 7 1 8 3 9 8 10 9 11 10 12 17 13
REMARK SMILES IDX 11 14 16 15 12 16 13 17 14 18 15 19 18 20 19 21 23 22 20 23
REMARK SMILES IDX 22 24 21 25
REMARK H PARENT
ROOT
ATOM      1  C   UNL     1      25.282 -52.864  53.277  1.00  0.00     0.036 A 
ATOM      2  C   UNL     1      23.894 -52.923  53.052  1.00  0.00     0.026 A 
ATOM      3  C   UNL     1      23.111 -54.010  53.465  1.00  0.00     0.011 A 
ATOM      4  C   UNL     1      23.698 -55.095  54.112  1.00  0.00    -0.017 A 
ATOM      5  C   UNL     1      25.072 -55.072  54.348  1.00  0.00     0.011 A 
ATOM      6  C   UNL     1      25.843 -53.978  53.929  1.00  0.00     0.026 A 
ENDROOT
BRANCH   1   7
ATOM      7  N   UNL     1      26.063 -51.788  52.837  1.00  0.00    -0.378 N 
ATOM      8  C   UNL     1      26.771 -50.976  53.828  1.00  0.00     0.143 C 
ATOM      9  C   UNL     1      25.660 -51.073  51.625  1.00  0.00     0.143 C 
ENDBRANCH   1   7
BRANCH   4  10
ATOM     10  C   UNL     1      22.879 -56.263  54.530  1.00  0.00    -0.004 C 
ATOM     11  C   UNL     1      22.272 -56.288  55.754  1.00  0.00    -0.017 C 
ATOM     12  C   UNL     1      22.398 -55.176  56.700  1.00  0.00     0.015 C 
ATOM     13  C   UNL     1      21.461 -57.428  56.190  1.00  0.00     0.015 C 
ATOM     14  C   UNL     1      21.812 -55.181  57.906  1.00  0.00     0.079 C 
ATOM     15  C   UNL     1      20.857 -57.471  57.387  1.00  0.00     0.079 C 
ATOM     16  C   UNL     1      20.980 -56.340  58.365  1.00  0.00     0.199 C 
ATOM     17  N   UNL     1      20.401 -56.363  59.532  1.00  0.00    -0.235 N 
ATOM     18  C   UNL     1      20.608 -55.288  60.553  1.00  0.00     0.433 C 
ATOM     19  C   UNL     1      19.480 -57.466  59.952  1.00  0.00     0.433 C 
BRANCH  10  20
ATOM     20  C   UNL     1      22.737 -57.403  53.585  1.00  0.00    -0.017 A 
ATOM     21  C   UNL     1      21.702 -57.411  52.639  1.00  0.00     0.009 A 
ATOM     22  C   UNL     1      23.632 -58.479  53.635  1.00  0.00     0.009 A 
ATOM     23  C   UNL     1      21.574 -58.478  51.748  1.00  0.00     0.001 A 
ATOM     24  C   UNL     1      23.500 -59.545  52.743  1.00  0.00     0.001 A 
ATOM     25  C   UNL     1      22.473 -59.542  51.800  1.00  0.00     0.000 A 
ENDBRANCH  10  20
ENDBRANCH   4  10
TORSDOF 3
ENDMDL
MODEL 5
REMARK minimizedAffinity -5.18089485
REMARK minimizedRMSD -1
REMARK SMILES CN(C)c1ccc(C(=C2C=CC(=[N+](C)C)C=C2)c2ccccc2)cc1
REMARK SMILES IDX 4 1 5 2 6 3 7 4 24 5 25 6 2 7 1 8 3 9 8 10 9 11 10 12 17 13
REMARK SMILES IDX 11 14 16 15 12 16 13 17 14 18 15 19 18 20 19 21 23 22 20 23
REMARK SMILES IDX 22 24 21 25
REMARK H PARENT
ROOT
ATOM      1  C   UNL     1      27.431 -47.076  54.680  1.00  0.00     0.036 A 
ATOM      2  C   UNL     1      27.343 -46.772  53.309  1.00  0.00     0.026 A 
ATOM      3  C   UNL     1      26.148 -46.902  52.585  1.00  0.00     0.011 A 
ATOM      4  C   UNL     1      24.991 -47.359  53.213  1.00  0.00    -0.017 A 
ATOM      5  C   UNL     1      25.044 -47.672  54.570  1.00  0.00     0.011 A 
ATOM      6  C   UNL     1      26.246 -47.538  55.281  1.00  0.00     0.026 A 
ENDROOT
BRANCH   1   7
ATOM      7  N   UNL     1      28.633 -46.969  55.390  1.00  0.00    -0.378 N 
ATOM      8  C   UNL     1      28.852 -45.798  56.239  1.00  0.00     0.143 C 
ATOM      9  C   UNL     1      29.846 -47.552  54.814  1.00  0.00     0.143 C 
ENDBRANCH   1   7
BRANCH   4  10
ATOM     10  C   UNL     1      23.728 -47.525  52.447  1.00  0.00    -0.004 C 
ATOM     11  C   UNL     1      22.911 -46.455  52.208  1.00  0.00    -0.017 C 
ATOM     12  C   UNL     1      23.241 -45.110  52.689  1.00  0.00     0.015 C 
ATOM     13  C   UNL     1      21.660 -46.592  51.457  1.00  0.00     0.015 C 
ATOM     14  C   UNL     1      22.454 -44.048  52.466  1.00  0.00     0.079 C 
ATOM     15  C   UNL     1      20.846 -45.555  51.212  1.00  0.00     0.079 C 
ATOM     16  C   UNL     1      21.171 -44.174  51.700  1.00  0.00     0.199 C 
ATOM     17  N   UNL     1      20.393 -43.154  51.472  1.00  0.00    -0.235 N 
ATOM     18  C   UNL     1      20.657 -41.797  52.048  1.00  0.00     0.433 C 
ATOM     19  C   UNL     1      19.169 -43.250  50.614  1.00  0.00     0.433 C 
BRANCH  10  20
ATOM     20  C   UNL     1      23.375 -48.880  51.948  1.00  0.00    -0.017 A 
ATOM     21  C   UNL     1      24.300 -49.622  51.201  1.00  0.00     0.009 A 
ATOM     22  C   UNL     1      22.113 -49.426  52.217  1.00  0.00     0.009 A 
ATOM     23  C   UNL     1      23.970 -50.897  50.739  1.00  0.00     0.001 A 
ATOM     24  C   UNL     1      21.785 -50.700  51.753  1.00  0.00     0.001 A 
ATOM     25  C   UNL     1      22.714 -51.435  51.016  1.00  0.00     0.000 A 
ENDBRANCH  10  20
ENDBRANCH   4  10
TORSDOF 3
ENDMDL
MODEL 6
REMARK minimizedAffinity -5.11893415
REMARK minimizedRMSD -1
REMARK SMILES CN(C)c1ccc(C(=C2C=CC(=[N+](C)C)C=C2)c2ccccc2)cc1
REMARK SMILES IDX 4 1 5 2 6 3 7 4 24 5 25 6 2 7 1 8 3 9 8 10 9 11 10 12 17 13
REMARK SMILES IDX 11 14 16 15 12 16 13 17 14 18 15 19 18 20 19 21 23 22 20 23
REMARK SMILES IDX 22 24 21 25
REMARK H PARENT
ROOT
ATOM      1  C   UNL     1      23.672 -50.568  51.962  1.00  0.00     0.036 A 
ATOM      2  C   UNL     1      24.739 -50.629  52.878  1.00  0.00     0.026 A 
ATOM      3  C   UNL     1      25.238 -51.843  53.372  1.00  0.00     0.011 A 
ATOM      4  C   UNL     1      24.671 -53.052  52.972  1.00  0.00    -0.017 A 
ATOM      5  C   UNL     1      23.610 -53.028  52.068  1.00  0.00     0.011 A 
ATOM      6  C   UNL     1      23.121 -51.806  51.583  1.00  0.00     0.026 A 
ENDROOT
BRANCH   1   7
ATOM      7  N   UNL     1      23.162 -49.352  51.495  1.00  0.00    -0.378 N 
ATOM      8  C   UNL     1      23.893 -48.118  51.787  1.00  0.00     0.143 C 
ATOM      9  C   UNL     1      21.712 -49.196  51.370  1.00  0.00     0.143 C 
ENDBRANCH   1   7
BRANCH   4  10
ATOM     10  C   UNL     1      25.176 -54.342  53.511  1.00  0.00    -0.004 C 
ATOM     11  C   UNL     1      24.408 -55.094  54.356  1.00  0.00    -0.017 C 
ATOM     12  C   UNL     1      23.066 -54.669  54.761  1.00  0.00     0.015 C 
ATOM     13  C   UNL     1      24.883 -56.368  54.903  1.00  0.00     0.015 C 
ATOM     14  C   UNL     1      22.297 -55.390  55.588  1.00  0.00     0.079 C 
ATOM     15  C   UNL     1      24.145 -57.120  55.731  1.00  0.00     0.079 C 
ATOM     16  C   UNL     1      22.770 -56.695  56.155  1.00  0.00     0.199 C 
ATOM     17  N   UNL     1      22.037 -57.412  56.960  1.00  0.00    -0.235 N 
ATOM     18  C   UNL     1      20.711 -56.942  57.472  1.00  0.00     0.433 C 
ATOM     19  C   UNL     1      22.458 -58.766  57.441  1.00  0.00     0.433 C 
BRANCH  10  20
ATOM     20  C   UNL     1      26.536 -54.793  53.111  1.00  0.00    -0.017 A 
ATOM     21  C   UNL     1      26.706 -55.605  51.982  1.00  0.00     0.009 A 
ATOM     22  C   UNL     1      27.656 -54.414  53.862  1.00  0.00     0.009 A 
ATOM     23  C   UNL     1      27.984 -56.023  51.604  1.00  0.00     0.001 A 
ATOM     24  C   UNL     1      28.931 -54.834  53.482  1.00  0.00     0.001 A 
ATOM     25  C   UNL     1      29.094 -55.636  52.353  1.00  0.00     0.000 A 
ENDBRANCH  10  20
ENDBRANCH   4  10
TORSDOF 3
ENDMDL
MODEL 7
REMARK minimizedAffinity -5.07271624
REMARK minimizedRMSD -1
REMARK SMILES CN(C)c1ccc(C(=C2C=CC(=[N+](C)C)C=C2)c2ccccc2)cc1
REMARK SMILES IDX 4 1 5 2 6 3 7 4 24 5 25 6 2 7 1 8 3 9 8 10 9 11 10 12 17 13
REMARK SMILES IDX 11 14 16 15 12 16 13 17 14 18 15 19 18 20 19 21 23 22 20 23
REMARK SMILES IDX 22 24 21 25
REMARK H PARENT
ROOT
ATOM      1  C   UNL     1      22.500 -55.747  55.091  1.00  0.00     0.036 A 
ATOM      2  C   UNL     1      22.719 -55.031  56.283  1.00  0.00     0.026 A 
ATOM      3  C   UNL     1      21.982 -55.273  57.451  1.00  0.00     0.011 A 
ATOM      4  C   UNL     1      20.979 -56.240  57.463  1.00  0.00    -0.017 A 
ATOM      5  C   UNL     1      20.733 -56.965  56.298  1.00  0.00     0.011 A 
ATOM      6  C   UNL     1      21.478 -56.712  55.137  1.00  0.00     0.026 A 
ENDROOT
BRANCH   1   7
ATOM      7  N   UNL     1      23.222 -55.482  53.921  1.00  0.00    -0.378 N 
ATOM      8  C   UNL     1      23.493 -54.090  53.557  1.00  0.00     0.143 C 
ATOM      9  C   UNL     1      23.098 -56.404  52.791  1.00  0.00     0.143 C 
ENDBRANCH   1   7
BRANCH   4  10
ATOM     10  C   UNL     1      20.175 -56.483  58.689  1.00  0.00    -0.004 C 
ATOM     11  C   UNL     1      19.165 -55.632  59.042  1.00  0.00    -0.017 C 
ATOM     12  C   UNL     1      18.832 -54.454  58.235  1.00  0.00     0.015 C 
ATOM     13  C   UNL     1      18.359 -55.847  60.246  1.00  0.00     0.015 C 
ATOM     14  C   UNL     1      17.847 -53.607  58.563  1.00  0.00     0.079 C 
ATOM     15  C   UNL     1      17.364 -55.024  60.608  1.00  0.00     0.079 C 
ATOM     16  C   UNL     1      17.014 -53.815  59.792  1.00  0.00     0.199 C 
ATOM     17  N   UNL     1      16.052 -53.003  60.127  1.00  0.00    -0.235 N 
ATOM     18  C   UNL     1      15.769 -51.738  59.378  1.00  0.00     0.433 C 
ATOM     19  C   UNL     1      15.146 -53.265  61.291  1.00  0.00     0.433 C 
BRANCH  10  20
ATOM     20  C   UNL     1      20.495 -57.673  59.522  1.00  0.00    -0.017 A 
ATOM     21  C   UNL     1      21.503 -57.604  60.494  1.00  0.00     0.009 A 
ATOM     22  C   UNL     1      19.794 -58.872  59.341  1.00  0.00     0.009 A 
ATOM     23  C   UNL     1      21.798 -58.720  61.279  1.00  0.00     0.001 A 
ATOM     24  C   UNL     1      20.092 -59.986  60.127  1.00  0.00     0.001 A 
ATOM     25  C   UNL     1      21.092 -59.908  61.097  1.00  0.00     0.000 A 
ENDBRANCH  10  20
ENDBRANCH   4  10
TORSDOF 3
ENDMDL
MODEL 8
REMARK minimizedAffinity -5.03694057
REMARK minimizedRMSD -1
REMARK SMILES CN(C)c1ccc(C(=C2C=CC(=[N+](C)C)C=C2)c2ccccc2)cc1
REMARK SMILES IDX 4 1 5 2 6 3 7 4 24 5 25 6 2 7 1 8 3 9 8 10 9 11 10 12 17 13
REMARK SMILES IDX 11 14 16 15 12 16 13 17 14 18 15 19 18 20 19 21 23 22 20 23
REMARK SMILES IDX 22 24 21 25
REMARK H PARENT
ROOT
ATOM      1  C   UNL     1      18.948 -54.029  58.647  1.00  0.00     0.036 A 
ATOM      2  C   UNL     1      20.294 -54.127  59.045  1.00  0.00     0.026 A 
ATOM      3  C   UNL     1      21.220 -54.936  58.372  1.00  0.00     0.011 A 
ATOM      4  C   UNL     1      20.823 -55.696  57.273  1.00  0.00    -0.017 A 
ATOM      5  C   UNL     1      19.496 -55.626  56.854  1.00  0.00     0.011 A 
ATOM      6  C   UNL     1      18.580 -54.812  57.538  1.00  0.00     0.026 A 
ENDROOT
BRANCH   1   7
ATOM      7  N   UNL     1      18.022 -53.239  59.341  1.00  0.00    -0.378 N 
ATOM      8  C   UNL     1      17.179 -53.868  60.359  1.00  0.00     0.143 C 
ATOM      9  C   UNL     1      17.418 -52.096  58.656  1.00  0.00     0.143 C 
ENDBRANCH   1   7
BRANCH   4  10
ATOM     10  C   UNL     1      21.792 -56.577  56.571  1.00  0.00    -0.004 C 
ATOM     11  C   UNL     1      22.157 -57.781  57.107  1.00  0.00    -0.017 C 
ATOM     12  C   UNL     1      21.613 -58.252  58.384  1.00  0.00     0.015 C 
ATOM     13  C   UNL     1      23.111 -58.667  56.437  1.00  0.00     0.015 C 
ATOM     14  C   UNL     1      21.957 -59.428  58.928  1.00  0.00     0.079 C 
ATOM     15  C   UNL     1      23.481 -59.851  56.946  1.00  0.00     0.079 C 
ATOM     16  C   UNL     1      22.933 -60.345  58.253  1.00  0.00     0.199 C 
ATOM     17  N   UNL     1      23.279 -61.492  58.764  1.00  0.00    -0.235 N 
ATOM     18  C   UNL     1      22.821 -61.940  60.118  1.00  0.00     0.433 C 
ATOM     19  C   UNL     1      24.166 -62.460  58.044  1.00  0.00     0.433 C 
BRANCH  10  20
ATOM     20  C   UNL     1      22.356 -56.119  55.273  1.00  0.00    -0.017 A 
ATOM     21  C   UNL     1      23.057 -54.908  55.196  1.00  0.00     0.009 A 
ATOM     22  C   UNL     1      22.186 -56.892  54.117  1.00  0.00     0.009 A 
ATOM     23  C   UNL     1      23.591 -54.483  53.978  1.00  0.00     0.001 A 
ATOM     24  C   UNL     1      22.720 -56.463  52.901  1.00  0.00     0.001 A 
ATOM     25  C   UNL     1      23.424 -55.260  52.833  1.00  0.00     0.000 A 
ENDBRANCH  10  20
ENDBRANCH   4  10
TORSDOF 3
ENDMDL
MODEL 9
REMARK minimizedAffinity -4.99547577
REMARK minimizedRMSD -1
REMARK SMILES CN(C)c1ccc(C(=C2C=CC(=[N+](C)C)C=C2)c2ccccc2)cc1
REMARK SMILES IDX 4 1 5 2 6 3 7 4 24 5 25 6 2 7 1 8 3 9 8 10 9 11 10 12 17 13
REMARK SMILES IDX 11 14 16 15 12 16 13 17 14 18 15 19 18 20 19 21 23 22 20 23
REMARK SMILES IDX 22 24 21 25
REMARK H PARENT
ROOT
ATOM      1  C   UNL     1      24.711 -47.250  52.332  1.00  0.00     0.036 A 
ATOM      2  C   UNL     1      24.580 -47.945  53.549  1.00  0.00     0.026 A 
ATOM      3  C   UNL     1      25.100 -49.234  53.738  1.00  0.00     0.011 A 
ATOM      4  C   UNL     1      25.764 -49.884  52.700  1.00  0.00    -0.017 A 
ATOM      5  C   UNL     1      25.908 -49.226  51.480  1.00  0.00     0.011 A 
ATOM      6  C   UNL     1      25.383 -47.937  51.305  1.00  0.00     0.026 A 
ENDROOT
BRANCH   1   7
ATOM      7  N   UNL     1      24.166 -45.974  52.142  1.00  0.00    -0.378 N 
ATOM      8  C   UNL     1      23.873 -45.148  53.314  1.00  0.00     0.143 C 
ATOM      9  C   UNL     1      23.294 -45.744  50.989  1.00  0.00     0.143 C 
ENDBRANCH   1   7
BRANCH   4  10
ATOM     10  C   UNL     1      26.294 -51.261  52.884  1.00  0.00    -0.004 C 
ATOM     11  C   UNL     1      27.577 -51.463  53.310  1.00  0.00    -0.017 C 
ATOM     12  C   UNL     1      28.478 -50.345  53.604  1.00  0.00     0.015 C 
ATOM     13  C   UNL     1      28.125 -52.809  53.498  1.00  0.00     0.015 C 
ATOM     14  C   UNL     1      29.739 -50.521  54.023  1.00  0.00     0.079 C 
ATOM     15  C   UNL     1      29.380 -53.028  53.916  1.00  0.00     0.079 C 
ATOM     16  C   UNL     1      30.312 -51.892  54.219  1.00  0.00     0.199 C 
ATOM     17  N   UNL     1      31.535 -52.084  54.626  1.00  0.00    -0.235 N 
ATOM     18  C   UNL     1      32.502 -50.959  54.825  1.00  0.00     0.433 C 
ATOM     19  C   UNL     1      32.078 -53.447  54.929  1.00  0.00     0.433 C 
BRANCH  10  20
ATOM     20  C   UNL     1      25.397 -52.410  52.592  1.00  0.00    -0.017 A 
ATOM     21  C   UNL     1      25.373 -52.981  51.312  1.00  0.00     0.009 A 
ATOM     22  C   UNL     1      24.566 -52.930  53.593  1.00  0.00     0.009 A 
ATOM     23  C   UNL     1      24.536 -54.064  51.042  1.00  0.00     0.001 A 
ATOM     24  C   UNL     1      23.730 -54.013  53.319  1.00  0.00     0.001 A 
ATOM     25  C   UNL     1      23.716 -54.580  52.045  1.00  0.00     0.000 A 
ENDBRANCH  10  20
ENDBRANCH   4  10
TORSDOF 3
ENDMDL
MODEL 10
REMARK minimizedAffinity -4.95458221
REMARK minimizedRMSD -1
REMARK SMILES CN(C)c1ccc(C(=C2C=CC(=[N+](C)C)C=C2)c2ccccc2)cc1
REMARK SMILES IDX 4 1 5 2 6 3 7 4 24 5 25 6 2 7 1 8 3 9 8 10 9 11 10 12 17 13
REMARK SMILES IDX 11 14 16 15 12 16 13 17 14 18 15 19 18 20 19 21 23 22 20 23
REMARK SMILES IDX 22 24 21 25
REMARK H PARENT
ROOT
ATOM      1  C   UNL     1      21.795 -44.187  51.812  1.00  0.00     0.036 A 
ATOM      2  C   UNL     1      21.830 -44.883  53.035  1.00  0.00     0.026 A 
ATOM      3  C   UNL     1      22.615 -46.029  53.226  1.00  0.00     0.011 A 
ATOM      4  C   UNL     1      23.391 -46.532  52.183  1.00  0.00    -0.017 A 
ATOM      5  C   UNL     1      23.377 -45.870  50.957  1.00  0.00     0.011 A 
ATOM      6  C   UNL     1      22.586 -44.724  50.780  1.00  0.00     0.026 A 
ENDROOT
BRANCH   1   7
ATOM      7  N   UNL     1      20.988 -43.059  51.621  1.00  0.00    -0.378 N 
ATOM      8  C   UNL     1      20.994 -42.005  52.636  1.00  0.00     0.143 C 
ATOM      9  C   UNL     1      19.729 -43.209  50.890  1.00  0.00     0.143 C 
ENDBRANCH   1   7
BRANCH   4  10
ATOM     10  C   UNL     1      24.205 -47.762  52.369  1.00  0.00    -0.004 C 
ATOM     11  C   UNL     1      25.443 -47.699  52.946  1.00  0.00    -0.017 C 
ATOM     12  C   UNL     1      26.016 -46.431  53.404  1.00  0.00     0.015 C 
ATOM     13  C   UNL     1      26.266 -48.896  53.139  1.00  0.00     0.015 C 
ATOM     14  C   UNL     1      27.228 -46.347  53.971  1.00  0.00     0.079 C 
ATOM     15  C   UNL     1      27.482 -48.855  53.703  1.00  0.00     0.079 C 
ATOM     16  C   UNL     1      28.081 -47.563  54.175  1.00  0.00     0.199 C 
ATOM     17  N   UNL     1      29.260 -47.502  54.725  1.00  0.00    -0.235 N 
ATOM     18  C   UNL     1      29.907 -46.204  55.098  1.00  0.00     0.433 C 
ATOM     19  C   UNL     1      30.070 -48.724  55.032  1.00  0.00     0.433 C 
BRANCH  10  20
ATOM     20  C   UNL     1      23.642 -49.061  51.912  1.00  0.00    -0.017 A 
ATOM     21  C   UNL     1      22.320 -49.407  52.225  1.00  0.00     0.009 A 
ATOM     22  C   UNL     1      24.429 -49.950  51.169  1.00  0.00     0.009 A 
ATOM     23  C   UNL     1      21.791 -50.623  51.790  1.00  0.00     0.001 A 
ATOM     24  C   UNL     1      23.897 -51.166  50.737  1.00  0.00     0.001 A 
ATOM     25  C   UNL     1      22.579 -51.500  51.046  1.00  0.00     0.000 A 
ENDBRANCH  10  20
ENDBRANCH   4  10
TORSDOF 3
ENDMDL
MODEL 11
REMARK minimizedAffinity -4.95275021
REMARK minimizedRMSD -1
REMARK SMILES CN(C)c1ccc(C(=C2C=CC(=[N+](C)C)C=C2)c2ccccc2)cc1
REMARK SMILES IDX 4 1 5 2 6 3 7 4 24 5 25 6 2 7 1 8 3 9 8 10 9 11 10 12 17 13
REMARK SMILES IDX 11 14 16 15 12 16 13 17 14 18 15 19 18 20 19 21 23 22 20 23
REMARK SMILES IDX 22 24 21 25
REMARK H PARENT
ROOT
ATOM      1  C   UNL     1      26.893 -56.726  52.599  1.00  0.00     0.036 A 
ATOM      2  C   UNL     1      26.137 -56.254  53.688  1.00  0.00     0.026 A 
ATOM      3  C   UNL     1      25.843 -54.895  53.867  1.00  0.00     0.011 A 
ATOM      4  C   UNL     1      26.312 -53.948  52.959  1.00  0.00    -0.017 A 
ATOM      5  C   UNL     1      27.068 -54.380  51.870  1.00  0.00     0.011 A 
ATOM      6  C   UNL     1      27.355 -55.743  51.704  1.00  0.00     0.026 A 
ENDROOT
BRANCH   1   7
ATOM      7  N   UNL     1      27.206 -58.081  52.441  1.00  0.00    -0.378 N 
ATOM      8  C   UNL     1      26.322 -59.085  53.036  1.00  0.00     0.143 C 
ATOM      9  C   UNL     1      28.613 -58.474  52.346  1.00  0.00     0.143 C 
ENDBRANCH   1   7
BRANCH   4  10
ATOM     10  C   UNL     1      26.028 -52.502  53.156  1.00  0.00    -0.004 C 
ATOM     11  C   UNL     1      26.757 -51.762  54.044  1.00  0.00    -0.017 C 
ATOM     12  C   UNL     1      27.842 -52.353  54.832  1.00  0.00     0.015 C 
ATOM     13  C   UNL     1      26.495 -50.336  54.258  1.00  0.00     0.015 C 
ATOM     14  C   UNL     1      28.569 -51.646  55.709  1.00  0.00     0.079 C 
ATOM     15  C   UNL     1      27.200 -49.593  55.124  1.00  0.00     0.079 C 
ATOM     16  C   UNL     1      28.312 -50.186  55.938  1.00  0.00     0.199 C 
ATOM     17  N   UNL     1      29.008 -49.481  56.784  1.00  0.00    -0.235 N 
ATOM     18  C   UNL     1      30.045 -50.090  57.677  1.00  0.00     0.433 C 
ATOM     19  C   UNL     1      28.831 -48.002  56.938  1.00  0.00     0.433 C 
BRANCH  10  20
ATOM     20  C   UNL     1      24.931 -51.881  52.365  1.00  0.00    -0.017 A 
ATOM     21  C   UNL     1      25.224 -50.936  51.373  1.00  0.00     0.009 A 
ATOM     22  C   UNL     1      23.598 -52.233  52.609  1.00  0.00     0.009 A 
ATOM     23  C   UNL     1      24.195 -50.359  50.627  1.00  0.00     0.001 A 
ATOM     24  C   UNL     1      22.571 -51.653  51.863  1.00  0.00     0.001 A 
ATOM     25  C   UNL     1      22.870 -50.719  50.871  1.00  0.00     0.000 A 
ENDBRANCH  10  20
ENDBRANCH   4  10
TORSDOF 3
ENDMDL
MODEL 12
REMARK minimizedAffinity -4.95000935
REMARK minimizedRMSD -1
REMARK SMILES CN(C)c1ccc(C(=C2C=CC(=[N+](C)C)C=C2)c2ccccc2)cc1
REMARK SMILES IDX 4 1 5 2 6 3 7 4 24 5 25 6 2 7 1 8 3 9 8 10 9 11 10 12 17 13
REMARK SMILES IDX 11 14 16 15 12 16 13 17 14 18 15 19 18 20 19 21 23 22 20 23
REMARK SMILES IDX 22 24 21 25
REMARK H PARENT
ROOT
ATOM      1  C   UNL     1      20.945 -57.511  57.925  1.00  0.00     0.036 A 
ATOM      2  C   UNL     1      22.053 -58.252  57.473  1.00  0.00     0.026 A 
ATOM      3  C   UNL     1      22.575 -58.110  56.179  1.00  0.00     0.011 A 
ATOM      4  C   UNL     1      21.991 -57.221  55.278  1.00  0.00    -0.017 A 
ATOM      5  C   UNL     1      20.890 -56.475  55.691  1.00  0.00     0.011 A 
ATOM      6  C   UNL     1      20.377 -56.627  56.988  1.00  0.00     0.026 A 
ENDROOT
BRANCH   1   7
ATOM      7  N   UNL     1      20.411 -57.678  59.208  1.00  0.00    -0.378 N 
ATOM      8  C   UNL     1      19.940 -59.004  59.612  1.00  0.00     0.143 C 
ATOM      9  C   UNL     1      19.710 -56.555  59.833  1.00  0.00     0.143 C 
ENDBRANCH   1   7
BRANCH   4  10
ATOM     10  C   UNL     1      22.523 -57.085  53.896  1.00  0.00    -0.004 C 
ATOM     11  C   UNL     1      23.190 -55.954  53.514  1.00  0.00    -0.017 C 
ATOM     12  C   UNL     1      23.410 -54.839  54.439  1.00  0.00     0.015 C 
ATOM     13  C   UNL     1      23.721 -55.793  52.158  1.00  0.00     0.015 C 
ATOM     14  C   UNL     1      24.061 -53.722  54.084  1.00  0.00     0.079 C 
ATOM     15  C   UNL     1      24.378 -54.693  51.764  1.00  0.00     0.079 C 
ATOM     16  C   UNL     1      24.610 -53.544  52.700  1.00  0.00     0.199 C 
ATOM     17  N   UNL     1      25.246 -52.466  52.337  1.00  0.00    -0.235 N 
ATOM     18  C   UNL     1      25.385 -51.274  53.232  1.00  0.00     0.433 C 
ATOM     19  C   UNL     1      25.892 -52.328  50.993  1.00  0.00     0.433 C 
BRANCH  10  20
ATOM     20  C   UNL     1      22.311 -58.205  52.941  1.00  0.00    -0.017 A 
ATOM     21  C   UNL     1      23.237 -59.254  52.867  1.00  0.00     0.009 A 
ATOM     22  C   UNL     1      21.187 -58.218  52.106  1.00  0.00     0.009 A 
ATOM     23  C   UNL     1      23.034 -60.308  51.975  1.00  0.00     0.001 A 
ATOM     24  C   UNL     1      20.987 -59.273  51.214  1.00  0.00     0.001 A 
ATOM     25  C   UNL     1      21.909 -60.318  51.151  1.00  0.00     0.000 A 
ENDBRANCH  10  20
ENDBRANCH   4  10
TORSDOF 3
ENDMDL
MODEL 13
REMARK minimizedAffinity -4.94673252
REMARK minimizedRMSD -1
REMARK SMILES CN(C)c1ccc(C(=C2C=CC(=[N+](C)C)C=C2)c2ccccc2)cc1
REMARK SMILES IDX 4 1 5 2 6 3 7 4 24 5 25 6 2 7 1 8 3 9 8 10 9 11 10 12 17 13
REMARK SMILES IDX 11 14 16 15 12 16 13 17 14 18 15 19 18 20 19 21 23 22 20 23
REMARK SMILES IDX 22 24 21 25
REMARK H PARENT
ROOT
ATOM      1  C   UNL     1      22.821 -55.906  54.293  1.00  0.00     0.036 A 
ATOM      2  C   UNL     1      21.717 -56.754  54.502  1.00  0.00     0.026 A 
ATOM      3  C   UNL     1      21.000 -56.772  55.707  1.00  0.00     0.011 A 
ATOM      4  C   UNL     1      21.376 -55.942  56.762  1.00  0.00    -0.017 A 
ATOM      5  C   UNL     1      22.467 -55.092  56.590  1.00  0.00     0.011 A 
ATOM      6  C   UNL     1      23.175 -55.085  55.379  1.00  0.00     0.026 A 
ENDROOT
BRANCH   1   7
ATOM      7  N   UNL     1      23.548 -55.913  53.097  1.00  0.00    -0.378 N 
ATOM      8  C   UNL     1      23.857 -54.637  52.448  1.00  0.00     0.143 C 
ATOM      9  C   UNL     1      23.399 -57.049  52.186  1.00  0.00     0.143 C 
ENDBRANCH   1   7
BRANCH   4  10
ATOM     10  C   UNL     1      20.638 -55.974  58.052  1.00  0.00    -0.004 C 
ATOM     11  C   UNL     1      20.663 -57.090  58.842  1.00  0.00    -0.017 C 
ATOM     12  C   UNL     1      21.411 -58.290  58.458  1.00  0.00     0.015 C 
ATOM     13  C   UNL     1      19.943 -57.148  60.117  1.00  0.00     0.015 C 
ATOM     14  C   UNL     1      21.447 -59.394  59.217  1.00  0.00     0.079 C 
ATOM     15  C   UNL     1      19.955 -58.232  60.906  1.00  0.00     0.079 C 
ATOM     16  C   UNL     1      20.715 -59.468  60.524  1.00  0.00     0.199 C 
ATOM     17  N   UNL     1      20.739 -60.531  61.277  1.00  0.00    -0.235 N 
ATOM     18  C   UNL     1      21.405 -61.803  60.851  1.00  0.00     0.433 C 
ATOM     19  C   UNL     1      20.103 -60.573  62.632  1.00  0.00     0.433 C 
BRANCH  10  20
ATOM     20  C   UNL     1      19.874 -54.766  58.462  1.00  0.00    -0.017 A 
ATOM     21  C   UNL     1      18.586 -54.540  57.956  1.00  0.00     0.009 A 
ATOM     22  C   UNL     1      20.435 -53.843  59.353  1.00  0.00     0.009 A 
ATOM     23  C   UNL     1      17.867 -53.410  58.346  1.00  0.00     0.001 A 
ATOM     24  C   UNL     1      19.714 -52.713  59.740  1.00  0.00     0.001 A 
ATOM     25  C   UNL     1      18.430 -52.498  59.238  1.00  0.00     0.000 A 
ENDBRANCH  10  20
ENDBRANCH   4  10
TORSDOF 3
ENDMDL
MODEL 14
REMARK minimizedAffinity -4.91128683
REMARK minimizedRMSD -1
REMARK SMILES CN(C)c1ccc(C(=C2C=CC(=[N+](C)C)C=C2)c2ccccc2)cc1
REMARK SMILES IDX 4 1 5 2 6 3 7 4 24 5 25 6 2 7 1 8 3 9 8 10 9 11 10 12 17 13
REMARK SMILES IDX 11 14 16 15 12 16 13 17 14 18 15 19 18 20 19 21 23 22 20 23
REMARK SMILES IDX 22 24 21 25
REMARK H PARENT
ROOT
ATOM      1  C   UNL     1      23.949 -48.343  51.806  1.00  0.00     0.036 A 
ATOM      2  C   UNL     1      24.292 -46.995  51.594  1.00  0.00     0.026 A 
ATOM      3  C   UNL     1      23.485 -45.936  52.033  1.00  0.00     0.011 A 
ATOM      4  C   UNL     1      22.286 -46.192  52.695  1.00  0.00    -0.017 A 
ATOM      5  C   UNL     1      21.914 -47.517  52.919  1.00  0.00     0.011 A 
ATOM      6  C   UNL     1      22.731 -48.566  52.473  1.00  0.00     0.026 A 
ENDROOT
BRANCH   1   7
ATOM      7  N   UNL     1      24.746 -49.396  51.341  1.00  0.00    -0.378 N 
ATOM      8  C   UNL     1      24.108 -50.667  50.995  1.00  0.00     0.143 C 
ATOM      9  C   UNL     1      26.123 -49.506  51.825  1.00  0.00     0.143 C 
ENDBRANCH   1   7
BRANCH   4  10
ATOM     10  C   UNL     1      21.412 -45.075  53.140  1.00  0.00    -0.004 C 
ATOM     11  C   UNL     1      21.532 -44.554  54.398  1.00  0.00    -0.017 C 
ATOM     12  C   UNL     1      22.518 -45.065  55.354  1.00  0.00     0.015 C 
ATOM     13  C   UNL     1      20.681 -43.454  54.862  1.00  0.00     0.015 C 
ATOM     14  C   UNL     1      22.652 -44.569  56.592  1.00  0.00     0.079 C 
ATOM     15  C   UNL     1      20.784 -42.929  56.091  1.00  0.00     0.079 C 
ATOM     16  C   UNL     1      21.789 -43.444  57.080  1.00  0.00     0.199 C 
ATOM     17  N   UNL     1      21.904 -42.947  58.279  1.00  0.00    -0.235 N 
ATOM     18  C   UNL     1      22.828 -43.528  59.304  1.00  0.00     0.433 C 
ATOM     19  C   UNL     1      21.123 -41.753  58.734  1.00  0.00     0.433 C 
BRANCH  10  20
ATOM     20  C   UNL     1      20.404 -44.540  52.186  1.00  0.00    -0.017 A 
ATOM     21  C   UNL     1      19.118 -45.094  52.133  1.00  0.00     0.009 A 
ATOM     22  C   UNL     1      20.734 -43.482  51.329  1.00  0.00     0.009 A 
ATOM     23  C   UNL     1      18.171 -44.586  51.241  1.00  0.00     0.001 A 
ATOM     24  C   UNL     1      19.786 -42.978  50.439  1.00  0.00     0.001 A 
ATOM     25  C   UNL     1      18.505 -43.528  50.397  1.00  0.00     0.000 A 
ENDBRANCH  10  20
ENDBRANCH   4  10
TORSDOF 3
ENDMDL
MODEL 15
REMARK minimizedAffinity -4.87915039
REMARK minimizedRMSD -1
REMARK SMILES CN(C)c1ccc(C(=C2C=CC(=[N+](C)C)C=C2)c2ccccc2)cc1
REMARK SMILES IDX 4 1 5 2 6 3 7 4 24 5 25 6 2 7 1 8 3 9 8 10 9 11 10 12 17 13
REMARK SMILES IDX 11 14 16 15 12 16 13 17 14 18 15 19 18 20 19 21 23 22 20 23
REMARK SMILES IDX 22 24 21 25
REMARK H PARENT
ROOT
ATOM      1  C   UNL     1      22.814 -48.788  51.859  1.00  0.00     0.036 A 
ATOM      2  C   UNL     1      23.871 -48.764  52.787  1.00  0.00     0.026 A 
ATOM      3  C   UNL     1      24.596 -49.914  53.132  1.00  0.00     0.011 A 
ATOM      4  C   UNL     1      24.274 -51.145  52.564  1.00  0.00    -0.017 A 
ATOM      5  C   UNL     1      23.229 -51.205  51.644  1.00  0.00     0.011 A 
ATOM      6  C   UNL     1      22.513 -50.047  51.308  1.00  0.00     0.026 A 
ENDROOT
BRANCH   1   7
ATOM      7  N   UNL     1      22.077 -47.640  51.540  1.00  0.00    -0.378 N 
ATOM      8  C   UNL     1      20.870 -47.779  50.724  1.00  0.00     0.143 C 
ATOM      9  C   UNL     1      22.784 -46.368  51.389  1.00  0.00     0.143 C 
ENDBRANCH   1   7
BRANCH   4  10
ATOM     10  C   UNL     1      25.019 -52.374  52.944  1.00  0.00    -0.004 C 
ATOM     11  C   UNL     1      26.347 -52.314  53.263  1.00  0.00    -0.017 C 
ATOM     12  C   UNL     1      27.088 -51.049  53.246  1.00  0.00     0.015 C 
ATOM     13  C   UNL     1      27.105 -53.510  53.639  1.00  0.00     0.015 C 
ATOM     14  C   UNL     1      28.390 -50.968  53.553  1.00  0.00     0.079 C 
ATOM     15  C   UNL     1      28.408 -53.471  53.955  1.00  0.00     0.079 C 
ATOM     16  C   UNL     1      29.178 -52.184  53.940  1.00  0.00     0.199 C 
ATOM     17  N   UNL     1      30.444 -52.126  54.244  1.00  0.00    -0.235 N 
ATOM     18  C   UNL     1      31.242 -50.865  54.125  1.00  0.00     0.433 C 
ATOM     19  C   UNL     1      31.208 -53.315  54.737  1.00  0.00     0.433 C 
BRANCH  10  20
ATOM     20  C   UNL     1      24.287 -53.668  52.970  1.00  0.00    -0.017 A 
ATOM     21  C   UNL     1      23.547 -54.039  54.101  1.00  0.00     0.009 A 
ATOM     22  C   UNL     1      24.333 -54.528  51.865  1.00  0.00     0.009 A 
ATOM     23  C   UNL     1      22.855 -55.250  54.121  1.00  0.00     0.001 A 
ATOM     24  C   UNL     1      23.640 -55.739  51.889  1.00  0.00     0.001 A 
ATOM     25  C   UNL     1      22.901 -56.098  53.015  1.00  0.00     0.000 A 
ENDBRANCH  10  20
ENDBRANCH   4  10
TORSDOF 3
ENDMDL
MODEL 16
REMARK minimizedAffinity -4.8422904
REMARK minimizedRMSD -1
REMARK SMILES CN(C)c1ccc(C(=C2C=CC(=[N+](C)C)C=C2)c2ccccc2)cc1
REMARK SMILES IDX 4 1 5 2 6 3 7 4 24 5 25 6 2 7 1 8 3 9 8 10 9 11 10 12 17 13
REMARK SMILES IDX 11 14 16 15 12 16 13 17 14 18 15 19 18 20 19 21 23 22 20 23
REMARK SMILES IDX 22 24 21 25
REMARK H PARENT
ROOT
ATOM      1  C   UNL     1      28.594 -48.736  55.256  1.00  0.00     0.036 A 
ATOM      2  C   UNL     1      29.067 -49.188  54.009  1.00  0.00     0.026 A 
ATOM      3  C   UNL     1      28.424 -50.200  53.283  1.00  0.00     0.011 A 
ATOM      4  C   UNL     1      27.279 -50.812  53.790  1.00  0.00    -0.017 A 
ATOM      5  C   UNL     1      26.786 -50.392  55.024  1.00  0.00     0.011 A 
ATOM      6  C   UNL     1      27.440 -49.378  55.740  1.00  0.00     0.026 A 
ENDROOT
BRANCH   1   7
ATOM      7  N   UNL     1      29.257 -47.744  55.988  1.00  0.00    -0.378 N 
ATOM      8  C   UNL     1      28.601 -47.179  57.169  1.00  0.00     0.143 C 
ATOM      9  C   UNL     1      30.159 -46.831  55.285  1.00  0.00     0.143 C 
ENDBRANCH   1   7
BRANCH   4  10
ATOM     10  C   UNL     1      26.607 -51.904  53.039  1.00  0.00    -0.004 C 
ATOM     11  C   UNL     1      27.155 -53.155  52.986  1.00  0.00    -0.017 C 
ATOM     12  C   UNL     1      28.415 -53.474  53.663  1.00  0.00     0.015 C 
ATOM     13  C   UNL     1      26.514 -54.249  52.251  1.00  0.00     0.015 C 
ATOM     14  C   UNL     1      28.970 -54.693  53.624  1.00  0.00     0.079 C 
ATOM     15  C   UNL     1      27.035 -55.482  52.189  1.00  0.00     0.079 C 
ATOM     16  C   UNL     1      28.325 -55.821  52.875  1.00  0.00     0.199 C 
ATOM     17  N   UNL     1      28.848 -57.014  52.826  1.00  0.00    -0.235 N 
ATOM     18  C   UNL     1      30.187 -57.329  53.417  1.00  0.00     0.433 C 
ATOM     19  C   UNL     1      28.155 -58.170  52.175  1.00  0.00     0.433 C 
BRANCH  10  20
ATOM     20  C   UNL     1      25.326 -51.603  52.346  1.00  0.00    -0.017 A 
ATOM     21  C   UNL     1      24.138 -52.223  52.757  1.00  0.00     0.009 A 
ATOM     22  C   UNL     1      25.297 -50.702  51.274  1.00  0.00     0.009 A 
ATOM     23  C   UNL     1      22.935 -51.935  52.110  1.00  0.00     0.001 A 
ATOM     24  C   UNL     1      24.093 -50.417  50.628  1.00  0.00     0.001 A 
ATOM     25  C   UNL     1      22.914 -51.031  51.048  1.00  0.00     0.000 A 
ENDBRANCH  10  20
ENDBRANCH   4  10
TORSDOF 3
ENDMDL
MODEL 17
REMARK minimizedAffinity -4.73085928
REMARK minimizedRMSD -1
REMARK SMILES CN(C)c1ccc(C(=C2C=CC(=[N+](C)C)C=C2)c2ccccc2)cc1
REMARK SMILES IDX 4 1 5 2 6 3 7 4 24 5 25 6 2 7 1 8 3 9 8 10 9 11 10 12 17 13
REMARK SMILES IDX 11 14 16 15 12 16 13 17 14 18 15 19 18 20 19 21 23 22 20 23
REMARK SMILES IDX 22 24 21 25
REMARK H PARENT
ROOT
ATOM      1  C   UNL     1      18.787 -52.902  59.029  1.00  0.00     0.036 A 
ATOM      2  C   UNL     1      18.234 -53.918  58.228  1.00  0.00     0.026 A 
ATOM      3  C   UNL     1      18.914 -55.113  57.953  1.00  0.00     0.011 A 
ATOM      4  C   UNL     1      20.193 -55.328  58.464  1.00  0.00    -0.017 A 
ATOM      5  C   UNL     1      20.772 -54.340  59.259  1.00  0.00     0.011 A 
ATOM      6  C   UNL     1      20.079 -53.150  59.525  1.00  0.00     0.026 A 
ENDROOT
BRANCH   1   7
ATOM      7  N   UNL     1      18.112 -51.700  59.277  1.00  0.00    -0.378 N 
ATOM      8  C   UNL     1      16.801 -51.485  58.663  1.00  0.00     0.143 C 
ATOM      9  C   UNL     1      18.896 -50.485  59.503  1.00  0.00     0.143 C 
ENDBRANCH   1   7
BRANCH   4  10
ATOM     10  C   UNL     1      20.932 -56.581  58.155  1.00  0.00    -0.004 C 
ATOM     11  C   UNL     1      21.607 -56.719  56.975  1.00  0.00    -0.017 C 
ATOM     12  C   UNL     1      21.634 -55.651  55.972  1.00  0.00     0.015 C 
ATOM     13  C   UNL     1      22.342 -57.943  56.645  1.00  0.00     0.015 C 
ATOM     14  C   UNL     1      22.288 -55.766  54.808  1.00  0.00     0.079 C 
ATOM     15  C   UNL     1      23.010 -58.098  55.493  1.00  0.00     0.079 C 
ATOM     16  C   UNL     1      23.044 -57.013  54.458  1.00  0.00     0.199 C 
ATOM     17  N   UNL     1      23.688 -57.144  53.332  1.00  0.00    -0.235 N 
ATOM     18  C   UNL     1      23.635 -56.110  52.251  1.00  0.00     0.433 C 
ATOM     19  C   UNL     1      24.534 -58.340  53.023  1.00  0.00     0.433 C 
BRANCH  10  20
ATOM     20  C   UNL     1      20.919 -57.677  59.160  1.00  0.00    -0.017 A 
ATOM     21  C   UNL     1      21.948 -57.780  60.106  1.00  0.00     0.009 A 
ATOM     22  C   UNL     1      19.882 -58.619  59.165  1.00  0.00     0.009 A 
ATOM     23  C   UNL     1      21.931 -58.807  61.052  1.00  0.00     0.001 A 
ATOM     24  C   UNL     1      19.869 -59.644  60.112  1.00  0.00     0.001 A 
ATOM     25  C   UNL     1      20.892 -59.736  61.055  1.00  0.00     0.000 A 
ENDBRANCH  10  20
ENDBRANCH   4  10
TORSDOF 3
ENDMDL
MODEL 18
REMARK minimizedAffinity -4.72940636
REMARK minimizedRMSD -1
REMARK SMILES CN(C)c1ccc(C(=C2C=CC(=[N+](C)C)C=C2)c2ccccc2)cc1
REMARK SMILES IDX 4 1 5 2 6 3 7 4 24 5 25 6 2 7 1 8 3 9 8 10 9 11 10 12 17 13
REMARK SMILES IDX 11 14 16 15 12 16 13 17 14 18 15 19 18 20 19 21 23 22 20 23
REMARK SMILES IDX 22 24 21 25
REMARK H PARENT
ROOT
ATOM      1  C   UNL     1      29.213 -50.365  54.571  1.00  0.00     0.036 A 
ATOM      2  C   UNL     1      28.983 -50.233  53.188  1.00  0.00     0.026 A 
ATOM      3  C   UNL     1      27.709 -50.380  52.621  1.00  0.00     0.011 A 
ATOM      4  C   UNL     1      26.611 -50.682  53.425  1.00  0.00    -0.017 A 
ATOM      5  C   UNL     1      26.805 -50.823  54.798  1.00  0.00     0.011 A 
ATOM      6  C   UNL     1      28.085 -50.674  55.352  1.00  0.00     0.026 A 
ENDROOT
BRANCH   1   7
ATOM      7  N   UNL     1      30.493 -50.243  55.126  1.00  0.00    -0.378 N 
ATOM      8  C   UNL     1      31.659 -50.510  54.283  1.00  0.00     0.143 C 
ATOM      9  C   UNL     1      30.676 -50.542  56.548  1.00  0.00     0.143 C 
ENDBRANCH   1   7
BRANCH   4  10
ATOM     10  C   UNL     1      25.262 -50.867  52.829  1.00  0.00    -0.004 C 
ATOM     11  C   UNL     1      24.452 -49.792  52.590  1.00  0.00    -0.017 C 
ATOM     12  C   UNL     1      24.872 -48.424  52.907  1.00  0.00     0.015 C 
ATOM     13  C   UNL     1      23.117 -49.946  52.005  1.00  0.00     0.015 C 
ATOM     14  C   UNL     1      24.093 -47.357  52.683  1.00  0.00     0.079 C 
ATOM     15  C   UNL     1      22.308 -48.905  51.764  1.00  0.00     0.079 C 
ATOM     16  C   UNL     1      22.725 -47.500  52.084  1.00  0.00     0.199 C 
ATOM     17  N   UNL     1      21.953 -46.475  51.857  1.00  0.00    -0.235 N 
ATOM     18  C   UNL     1      22.320 -45.085  52.275  1.00  0.00     0.433 C 
ATOM     19  C   UNL     1      20.634 -46.599  51.160  1.00  0.00     0.433 C 
BRANCH  10  20
ATOM     20  C   UNL     1      24.816 -52.246  52.498  1.00  0.00    -0.017 A 
ATOM     21  C   UNL     1      23.986 -52.950  53.381  1.00  0.00     0.009 A 
ATOM     22  C   UNL     1      25.224 -52.854  51.304  1.00  0.00     0.009 A 
ATOM     23  C   UNL     1      23.563 -54.243  53.066  1.00  0.00     0.001 A 
ATOM     24  C   UNL     1      24.800 -54.147  50.993  1.00  0.00     0.001 A 
ATOM     25  C   UNL     1      23.969 -54.839  51.873  1.00  0.00     0.000 A 
ENDBRANCH  10  20
ENDBRANCH   4  10
TORSDOF 3
ENDMDL
MODEL 19
REMARK minimizedAffinity -4.71935892
REMARK minimizedRMSD -1
REMARK SMILES CN(C)c1ccc(C(=C2C=CC(=[N+](C)C)C=C2)c2ccccc2)cc1
REMARK SMILES IDX 4 1 5 2 6 3 7 4 24 5 25 6 2 7 1 8 3 9 8 10 9 11 10 12 17 13
REMARK SMILES IDX 11 14 16 15 12 16 13 17 14 18 15 19 18 20 19 21 23 22 20 23
REMARK SMILES IDX 22 24 21 25
REMARK H PARENT
ROOT
ATOM      1  C   UNL     1      34.542 -46.057  57.925  1.00  0.00     0.036 A 
ATOM      2  C   UNL     1      33.489 -45.180  58.245  1.00  0.00     0.026 A 
ATOM      3  C   UNL     1      32.565 -44.733  57.290  1.00  0.00     0.011 A 
ATOM      4  C   UNL     1      32.674 -45.141  55.962  1.00  0.00    -0.017 A 
ATOM      5  C   UNL     1      33.708 -46.006  55.608  1.00  0.00     0.011 A 
ATOM      6  C   UNL     1      34.625 -46.445  56.575  1.00  0.00     0.026 A 
ENDROOT
BRANCH   1   7
ATOM      7  N   UNL     1      35.477 -46.477  58.878  1.00  0.00    -0.378 N 
ATOM      8  C   UNL     1      36.196 -47.733  58.658  1.00  0.00     0.143 C 
ATOM      9  C   UNL     1      35.258 -46.128  60.283  1.00  0.00     0.143 C 
ENDBRANCH   1   7
BRANCH   4  10
ATOM     10  C   UNL     1      31.715 -44.650  54.937  1.00  0.00    -0.004 C 
ATOM     11  C   UNL     1      30.566 -45.341  54.669  1.00  0.00    -0.017 C 
ATOM     12  C   UNL     1      30.230 -46.582  55.373  1.00  0.00     0.015 C 
ATOM     13  C   UNL     1      29.605 -44.880  53.663  1.00  0.00     0.015 C 
ATOM     14  C   UNL     1      29.110 -47.275  55.125  1.00  0.00     0.079 C 
ATOM     15  C   UNL     1      28.473 -45.543  53.387  1.00  0.00     0.079 C 
ATOM     16  C   UNL     1      28.118 -46.815  54.099  1.00  0.00     0.199 C 
ATOM     17  N   UNL     1      27.023 -47.473  53.844  1.00  0.00    -0.235 N 
ATOM     18  C   UNL     1      26.717 -48.797  54.473  1.00  0.00     0.433 C 
ATOM     19  C   UNL     1      25.977 -46.963  52.902  1.00  0.00     0.433 C 
BRANCH  10  20
ATOM     20  C   UNL     1      32.035 -43.393  54.211  1.00  0.00    -0.017 A 
ATOM     21  C   UNL     1      32.874 -43.419  53.089  1.00  0.00     0.009 A 
ATOM     22  C   UNL     1      31.504 -42.171  54.646  1.00  0.00     0.009 A 
ATOM     23  C   UNL     1      33.169 -42.238  52.405  1.00  0.00     0.001 A 
ATOM     24  C   UNL     1      31.802 -40.993  53.960  1.00  0.00     0.001 A 
ATOM     25  C   UNL     1      32.632 -41.027  52.840  1.00  0.00     0.000 A 
ENDBRANCH  10  20
ENDBRANCH   4  10
TORSDOF 3
ENDMDL
MODEL 20
REMARK minimizedAffinity -4.67027807
REMARK minimizedRMSD -1
REMARK SMILES CN(C)c1ccc(C(=C2C=CC(=[N+](C)C)C=C2)c2ccccc2)cc1
REMARK SMILES IDX 4 1 5 2 6 3 7 4 24 5 25 6 2 7 1 8 3 9 8 10 9 11 10 12 17 13
REMARK SMILES IDX 11 14 16 15 12 16 13 17 14 18 15 19 18 20 19 21 23 22 20 23
REMARK SMILES IDX 22 24 21 25
REMARK H PARENT
ROOT
ATOM      1  C   UNL     1      21.288 -45.547  51.816  1.00  0.00     0.036 A 
ATOM      2  C   UNL     1      21.314 -46.307  53.000  1.00  0.00     0.026 A 
ATOM      3  C   UNL     1      22.433 -47.061  53.386  1.00  0.00     0.011 A 
ATOM      4  C   UNL     1      23.572 -47.090  52.583  1.00  0.00    -0.017 A 
ATOM      5  C   UNL     1      23.579 -46.351  51.401  1.00  0.00     0.011 A 
ATOM      6  C   UNL     1      22.453 -45.603  51.028  1.00  0.00     0.026 A 
ENDROOT
BRANCH   1   7
ATOM      7  N   UNL     1      20.158 -44.819  51.423  1.00  0.00    -0.378 N 
ATOM      8  C   UNL     1      20.329 -43.439  50.968  1.00  0.00     0.143 C 
ATOM      9  C   UNL     1      18.876 -45.104  52.070  1.00  0.00     0.143 C 
ENDBRANCH   1   7
BRANCH   4  10
ATOM     10  C   UNL     1      24.751 -47.907  52.972  1.00  0.00    -0.004 C 
ATOM     11  C   UNL     1      24.801 -49.242  52.682  1.00  0.00    -0.017 C 
ATOM     12  C   UNL     1      23.707 -49.921  51.981  1.00  0.00     0.015 C 
ATOM     13  C   UNL     1      25.951 -50.071  53.055  1.00  0.00     0.015 C 
ATOM     14  C   UNL     1      23.735 -51.228  51.688  1.00  0.00     0.079 C 
ATOM     15  C   UNL     1      26.018 -51.381  52.779  1.00  0.00     0.079 C 
ATOM     16  C   UNL     1      24.905 -52.087  52.064  1.00  0.00     0.199 C 
ATOM     17  N   UNL     1      24.952 -53.360  51.787  1.00  0.00    -0.235 N 
ATOM     18  C   UNL     1      23.800 -54.092  51.172  1.00  0.00     0.433 C 
ATOM     19  C   UNL     1      26.162 -54.199  52.060  1.00  0.00     0.433 C 
BRANCH  10  20
ATOM     20  C   UNL     1      25.874 -47.239  53.682  1.00  0.00    -0.017 A 
ATOM     21  C   UNL     1      26.957 -46.719  52.960  1.00  0.00     0.009 A 
ATOM     22  C   UNL     1      25.860 -47.127  55.078  1.00  0.00     0.009 A 
ATOM     23  C   UNL     1      28.007 -46.087  53.628  1.00  0.00     0.001 A 
ATOM     24  C   UNL     1      26.911 -46.495  55.743  1.00  0.00     0.001 A 
ATOM     25  C   UNL     1      27.982 -45.973  55.018  1.00  0.00     0.000 A 
ENDBRANCH  10  20
ENDBRANCH   4  10
TORSDOF 3
ENDMDL
