REMARK SMILES CN(C)c1ccc(C(=C2C=CC(=[N+](C)C)C=C2)c2ccccc2)cc1
REMARK SMILES IDX 8 1 9 2 10 3 11 4 12 5 13 6 14 7 15 8 16 9 17 10 7 11 4 12
REMARK SMILES IDX 5 13 25 14 6 15 24 16 2 17 1 18 3 19 18 20 19 21 23 22 20 23
REMARK SMILES IDX 22 24 21 25
REMARK H PARENT
REMARK Flexibility Score: inf
ROOT
ATOM      1  C   UNL     1       0.535  -0.240   0.596  1.00  0.00    -0.004 C 
ATOM      2  C   UNL     1      -0.773   0.133   0.661  1.00  0.00    -0.017 C 
ATOM      3  C   UNL     1      -1.629  -0.239   1.818  1.00  0.00     0.015 C 
ATOM      4  C   UNL     1      -2.912   0.124   1.883  1.00  0.00     0.079 C 
ATOM      5  C   UNL     1      -3.555   0.925   0.799  1.00  0.00     0.199 C 
ATOM      6  N   UNL     1      -4.827   1.287   0.862  1.00  0.00    -0.235 N 
ATOM      7  C   UNL     1      -5.451   2.075  -0.215  1.00  0.00     0.433 C 
ATOM      8  C   UNL     1      -5.671   0.917   2.013  1.00  0.00     0.433 C 
ATOM      9  C   UNL     1      -2.690   1.296  -0.360  1.00  0.00     0.079 C 
ATOM     10  C   UNL     1      -1.408   0.929  -0.423  1.00  0.00     0.015 C 
ENDROOT
BRANCH   1  11
ATOM     11  C   UNL     1       1.342  -0.056  -0.636  1.00  0.00    -0.017 A 
ATOM     12  C   UNL     1       2.933   0.232  -2.958  1.00  0.00     0.036 A 
ATOM     13  C   UNL     1       1.753  -0.541  -2.980  1.00  0.00     0.026 A 
ATOM     14  C   UNL     1       3.305   0.847  -1.744  1.00  0.00     0.026 A 
ATOM     15  C   UNL     1       0.972  -0.688  -1.831  1.00  0.00     0.011 A 
ATOM     16  C   UNL     1       2.521   0.699  -0.597  1.00  0.00     0.011 A 
BRANCH  12  17
ATOM     17  N   UNL     1       3.745   0.387  -4.152  1.00  0.00    -0.378 N 
ATOM     18  C   UNL     1       5.155   0.783  -4.050  1.00  0.00     0.143 C 
ATOM     19  C   UNL     1       3.170   0.149  -5.482  1.00  0.00     0.143 C 
ENDBRANCH  12  17
ENDBRANCH   1  11
BRANCH   1  20
ATOM     20  C   UNL     1       1.235  -0.852   1.752  1.00  0.00    -0.017 A 
ATOM     21  C   UNL     1       1.361  -0.151   2.964  1.00  0.00     0.009 A 
ATOM     22  C   UNL     1       1.836  -2.115   1.622  1.00  0.00     0.009 A 
ATOM     23  C   UNL     1       2.052  -0.720   4.038  1.00  0.00     0.001 A 
ATOM     24  C   UNL     1       2.527  -2.680   2.698  1.00  0.00     0.001 A 
ATOM     25  C   UNL     1       2.633  -1.984   3.906  1.00  0.00     0.000 A 
ENDBRANCH   1  20
TORSDOF 3
