MODEL 1
REMARK VINA RESULT:    -7.111      0.000      0.000
REMARK INTER + INTRA:          -9.481
REMARK INTER:                  -8.358
REMARK INTRA:                  -1.124
REMARK UNBOUND:                -1.124
REMARK SMILES CN(C)c1ccc(C(=C2C=CC(=[N+](C)C)C=C2)c2ccccc2)cc1
REMARK SMILES IDX 4 1 5 2 6 3 7 4 24 5 25 6 2 7 1 8 3 9 8 10 9 11 10 12 17 13
REMARK SMILES IDX 11 14 16 15 12 16 13 17 14 18 15 19 18 20 19 21 23 22 20 23
REMARK SMILES IDX 22 24 21 25
REMARK H PARENT
ROOT
ATOM      1  C   UNL     1      16.473   2.398   2.212  1.00  0.00     0.036 A 
ATOM      2  C   UNL     1      17.240   1.346   2.747  1.00  0.00     0.026 A 
ATOM      3  C   UNL     1      18.589   1.501   3.098  1.00  0.00     0.011 A 
ATOM      4  C   UNL     1      19.228   2.725   2.910  1.00  0.00    -0.017 A 
ATOM      5  C   UNL     1      18.499   3.788   2.379  1.00  0.00     0.011 A 
ATOM      6  C   UNL     1      17.151   3.618   2.032  1.00  0.00     0.026 A 
ENDROOT
BRANCH   1   7
ATOM      7  N   UNL     1      15.134   2.228   1.839  1.00  0.00    -0.378 N 
ATOM      8  C   UNL     1      14.241   3.388   1.862  1.00  0.00     0.143 C 
ATOM      9  C   UNL     1      14.486   0.943   2.102  1.00  0.00     0.143 C 
ENDBRANCH   1   7
BRANCH   4  10
ATOM     10  C   UNL     1      20.665   2.890   3.254  1.00  0.00    -0.004 C 
ATOM     11  C   UNL     1      21.038   3.416   4.459  1.00  0.00    -0.017 C 
ATOM     12  C   UNL     1      20.050   3.834   5.457  1.00  0.00     0.015 C 
ATOM     13  C   UNL     1      22.447   3.591   4.822  1.00  0.00     0.015 C 
ATOM     14  C   UNL     1      20.394   4.352   6.645  1.00  0.00     0.079 C 
ATOM     15  C   UNL     1      22.833   4.104   5.999  1.00  0.00     0.079 C 
ATOM     16  C   UNL     1      21.831   4.537   7.029  1.00  0.00     0.199 C 
ATOM     17  N   UNL     1      22.186   5.037   8.178  1.00  0.00    -0.235 N 
ATOM     18  C   UNL     1      21.193   5.571   9.164  1.00  0.00     0.433 C 
ATOM     19  C   UNL     1      23.617   5.122   8.612  1.00  0.00     0.433 C 
BRANCH  10  20
ATOM     20  C   UNL     1      21.685   2.471   2.256  1.00  0.00    -0.017 A 
ATOM     21  C   UNL     1      21.921   3.252   1.116  1.00  0.00     0.009 A 
ATOM     22  C   UNL     1      22.416   1.291   2.445  1.00  0.00     0.009 A 
ATOM     23  C   UNL     1      22.883   2.861   0.184  1.00  0.00     0.001 A 
ATOM     24  C   UNL     1      23.377   0.903   1.510  1.00  0.00     0.001 A 
ATOM     25  C   UNL     1      23.611   1.689   0.382  1.00  0.00     0.000 A 
ENDBRANCH  10  20
ENDBRANCH   4  10
TORSDOF 3
ENDMDL
MODEL 2
REMARK VINA RESULT:    -7.063      3.986      6.117
REMARK INTER + INTRA:          -9.426
REMARK INTER:                  -8.321
REMARK INTRA:                  -1.104
REMARK UNBOUND:                -1.124
REMARK SMILES CN(C)c1ccc(C(=C2C=CC(=[N+](C)C)C=C2)c2ccccc2)cc1
REMARK SMILES IDX 4 1 5 2 6 3 7 4 24 5 25 6 2 7 1 8 3 9 8 10 9 11 10 12 17 13
REMARK SMILES IDX 11 14 16 15 12 16 13 17 14 18 15 19 18 20 19 21 23 22 20 23
REMARK SMILES IDX 22 24 21 25
REMARK H PARENT
ROOT
ATOM      1  C   UNL     1      13.623   0.477   2.904  1.00  0.00     0.036 A 
ATOM      2  C   UNL     1      14.524   0.986   3.858  1.00  0.00     0.026 A 
ATOM      3  C   UNL     1      15.434   2.011   3.561  1.00  0.00     0.011 A 
ATOM      4  C   UNL     1      15.485   2.557   2.280  1.00  0.00    -0.017 A 
ATOM      5  C   UNL     1      14.610   2.073   1.309  1.00  0.00     0.011 A 
ATOM      6  C   UNL     1      13.705   1.047   1.621  1.00  0.00     0.026 A 
ENDROOT
BRANCH   1   7
ATOM      7  N   UNL     1      12.736  -0.565   3.200  1.00  0.00    -0.378 N 
ATOM      8  C   UNL     1      11.654  -0.862   2.260  1.00  0.00     0.143 C 
ATOM      9  C   UNL     1      12.435  -0.858   4.602  1.00  0.00     0.143 C 
ENDBRANCH   1   7
BRANCH   4  10
ATOM     10  C   UNL     1      16.466   3.625   1.950  1.00  0.00    -0.004 C 
ATOM     11  C   UNL     1      16.097   4.941   1.969  1.00  0.00    -0.017 C 
ATOM     12  C   UNL     1      14.734   5.355   2.314  1.00  0.00     0.015 C 
ATOM     13  C   UNL     1      17.043   6.012   1.646  1.00  0.00     0.015 C 
ATOM     14  C   UNL     1      14.352   6.639   2.339  1.00  0.00     0.079 C 
ATOM     15  C   UNL     1      16.701   7.308   1.660  1.00  0.00     0.079 C 
ATOM     16  C   UNL     1      15.310   7.746   2.010  1.00  0.00     0.199 C 
ATOM     17  N   UNL     1      14.958   9.000   2.029  1.00  0.00    -0.235 N 
ATOM     18  C   UNL     1      13.546   9.435   2.271  1.00  0.00     0.433 C 
ATOM     19  C   UNL     1      15.935  10.114   1.811  1.00  0.00     0.433 C 
BRANCH  10  20
ATOM     20  C   UNL     1      17.855   3.227   1.597  1.00  0.00    -0.017 A 
ATOM     21  C   UNL     1      18.769   2.889   2.604  1.00  0.00     0.009 A 
ATOM     22  C   UNL     1      18.261   3.190   0.257  1.00  0.00     0.009 A 
ATOM     23  C   UNL     1      20.071   2.510   2.272  1.00  0.00     0.001 A 
ATOM     24  C   UNL     1      19.563   2.812  -0.071  1.00  0.00     0.001 A 
ATOM     25  C   UNL     1      20.466   2.470   0.935  1.00  0.00     0.000 A 
ENDBRANCH  10  20
ENDBRANCH   4  10
TORSDOF 3
ENDMDL
MODEL 3
REMARK VINA RESULT:    -6.951      2.388      3.152
REMARK INTER + INTRA:          -9.294
REMARK INTER:                  -8.167
REMARK INTRA:                  -1.127
REMARK UNBOUND:                -1.124
REMARK SMILES CN(C)c1ccc(C(=C2C=CC(=[N+](C)C)C=C2)c2ccccc2)cc1
REMARK SMILES IDX 4 1 5 2 6 3 7 4 24 5 25 6 2 7 1 8 3 9 8 10 9 11 10 12 17 13
REMARK SMILES IDX 11 14 16 15 12 16 13 17 14 18 15 19 18 20 19 21 23 22 20 23
REMARK SMILES IDX 22 24 21 25
REMARK H PARENT
ROOT
ATOM      1  C   UNL     1      17.854   6.602   1.222  1.00  0.00     0.036 A 
ATOM      2  C   UNL     1      19.226   6.850   1.029  1.00  0.00     0.026 A 
ATOM      3  C   UNL     1      20.222   6.122   1.695  1.00  0.00     0.011 A 
ATOM      4  C   UNL     1      19.876   5.118   2.597  1.00  0.00    -0.017 A 
ATOM      5  C   UNL     1      18.526   4.849   2.815  1.00  0.00     0.011 A 
ATOM      6  C   UNL     1      17.540   5.585   2.142  1.00  0.00     0.026 A 
ENDROOT
BRANCH   1   7
ATOM      7  N   UNL     1      16.864   7.351   0.574  1.00  0.00    -0.378 N 
ATOM      8  C   UNL     1      17.000   7.614  -0.860  1.00  0.00     0.143 C 
ATOM      9  C   UNL     1      16.156   8.386   1.328  1.00  0.00     0.143 C 
ENDBRANCH   1   7
BRANCH   4  10
ATOM     10  C   UNL     1      20.926   4.360   3.327  1.00  0.00    -0.004 C 
ATOM     11  C   UNL     1      21.277   4.706   4.602  1.00  0.00    -0.017 C 
ATOM     12  C   UNL     1      20.641   5.827   5.300  1.00  0.00     0.015 C 
ATOM     13  C   UNL     1      22.310   3.977   5.343  1.00  0.00     0.015 C 
ATOM     14  C   UNL     1      20.971   6.184   6.549  1.00  0.00     0.079 C 
ATOM     15  C   UNL     1      22.668   4.301   6.594  1.00  0.00     0.079 C 
ATOM     16  C   UNL     1      22.026   5.446   7.319  1.00  0.00     0.199 C 
ATOM     17  N   UNL     1      22.360   5.777   8.534  1.00  0.00    -0.235 N 
ATOM     18  C   UNL     1      21.801   6.984   9.222  1.00  0.00     0.433 C 
ATOM     19  C   UNL     1      23.332   4.978   9.348  1.00  0.00     0.433 C 
BRANCH  10  20
ATOM     20  C   UNL     1      21.584   3.218   2.639  1.00  0.00    -0.017 A 
ATOM     21  C   UNL     1      22.867   3.366   2.095  1.00  0.00     0.009 A 
ATOM     22  C   UNL     1      20.925   1.987   2.524  1.00  0.00     0.009 A 
ATOM     23  C   UNL     1      23.486   2.291   1.455  1.00  0.00     0.001 A 
ATOM     24  C   UNL     1      21.547   0.915   1.882  1.00  0.00     0.001 A 
ATOM     25  C   UNL     1      22.827   1.067   1.350  1.00  0.00     0.000 A 
ENDBRANCH  10  20
ENDBRANCH   4  10
TORSDOF 3
ENDMDL
MODEL 4
REMARK VINA RESULT:    -6.877      3.675      7.520
REMARK INTER + INTRA:          -9.206
REMARK INTER:                  -8.073
REMARK INTRA:                  -1.134
REMARK UNBOUND:                -1.124
REMARK SMILES CN(C)c1ccc(C(=C2C=CC(=[N+](C)C)C=C2)c2ccccc2)cc1
REMARK SMILES IDX 4 1 5 2 6 3 7 4 24 5 25 6 2 7 1 8 3 9 8 10 9 11 10 12 17 13
REMARK SMILES IDX 11 14 16 15 12 16 13 17 14 18 15 19 18 20 19 21 23 22 20 23
REMARK SMILES IDX 22 24 21 25
REMARK H PARENT
ROOT
ATOM      1  C   UNL     1      20.454   2.076   1.393  1.00  0.00     0.036 A 
ATOM      2  C   UNL     1      19.579   2.438   0.352  1.00  0.00     0.026 A 
ATOM      3  C   UNL     1      18.260   2.850   0.587  1.00  0.00     0.011 A 
ATOM      4  C   UNL     1      17.760   2.901   1.887  1.00  0.00    -0.017 A 
ATOM      5  C   UNL     1      18.598   2.546   2.942  1.00  0.00     0.011 A 
ATOM      6  C   UNL     1      19.916   2.135   2.692  1.00  0.00     0.026 A 
ENDROOT
BRANCH   1   7
ATOM      7  N   UNL     1      21.762   1.639   1.149  1.00  0.00    -0.378 N 
ATOM      8  C   UNL     1      22.507   0.996   2.232  1.00  0.00     0.143 C 
ATOM      9  C   UNL     1      22.582   2.373   0.184  1.00  0.00     0.143 C 
ENDBRANCH   1   7
BRANCH   4  10
ATOM     10  C   UNL     1      16.354   3.311   2.143  1.00  0.00    -0.004 C 
ATOM     11  C   UNL     1      16.004   4.633   2.157  1.00  0.00    -0.017 C 
ATOM     12  C   UNL     1      16.988   5.693   1.922  1.00  0.00     0.015 C 
ATOM     13  C   UNL     1      14.626   5.063   2.409  1.00  0.00     0.015 C 
ATOM     14  C   UNL     1      16.666   6.994   1.933  1.00  0.00     0.079 C 
ATOM     15  C   UNL     1      14.264   6.354   2.426  1.00  0.00     0.079 C 
ATOM     16  C   UNL     1      15.260   7.449   2.188  1.00  0.00     0.199 C 
ATOM     17  N   UNL     1      14.927   8.709   2.202  1.00  0.00    -0.235 N 
ATOM     18  C   UNL     1      15.936   9.808   2.073  1.00  0.00     0.433 C 
ATOM     19  C   UNL     1      13.509   9.165   2.346  1.00  0.00     0.433 C 
BRANCH  10  20
ATOM     20  C   UNL     1      15.339   2.251   2.383  1.00  0.00    -0.017 A 
ATOM     21  C   UNL     1      15.164   1.718   3.667  1.00  0.00     0.009 A 
ATOM     22  C   UNL     1      14.553   1.773   1.327  1.00  0.00     0.009 A 
ATOM     23  C   UNL     1      14.207   0.728   3.893  1.00  0.00     0.001 A 
ATOM     24  C   UNL     1      13.597   0.782   1.555  1.00  0.00     0.001 A 
ATOM     25  C   UNL     1      13.424   0.262   2.837  1.00  0.00     0.000 A 
ENDBRANCH  10  20
ENDBRANCH   4  10
TORSDOF 3
ENDMDL
MODEL 5
REMARK VINA RESULT:    -6.863      2.616      7.922
REMARK INTER + INTRA:          -9.191
REMARK INTER:                  -8.025
REMARK INTRA:                  -1.166
REMARK UNBOUND:                -1.124
REMARK SMILES CN(C)c1ccc(C(=C2C=CC(=[N+](C)C)C=C2)c2ccccc2)cc1
REMARK SMILES IDX 4 1 5 2 6 3 7 4 24 5 25 6 2 7 1 8 3 9 8 10 9 11 10 12 17 13
REMARK SMILES IDX 11 14 16 15 12 16 13 17 14 18 15 19 18 20 19 21 23 22 20 23
REMARK SMILES IDX 22 24 21 25
REMARK H PARENT
ROOT
ATOM      1  C   UNL     1      21.625   3.535   2.322  1.00  0.00     0.036 A 
ATOM      2  C   UNL     1      20.776   4.049   3.320  1.00  0.00     0.026 A 
ATOM      3  C   UNL     1      19.432   4.365   3.074  1.00  0.00     0.011 A 
ATOM      4  C   UNL     1      18.889   4.189   1.803  1.00  0.00    -0.017 A 
ATOM      5  C   UNL     1      19.703   3.685   0.790  1.00  0.00     0.011 A 
ATOM      6  C   UNL     1      21.046   3.374   1.050  1.00  0.00     0.026 A 
ENDROOT
BRANCH   1   7
ATOM      7  N   UNL     1      22.973   3.247   2.567  1.00  0.00    -0.378 N 
ATOM      8  C   UNL     1      23.606   2.148   1.838  1.00  0.00     0.143 C 
ATOM      9  C   UNL     1      23.516   3.497   3.904  1.00  0.00     0.143 C 
ENDBRANCH   1   7
BRANCH   4  10
ATOM     10  C   UNL     1      17.473   4.547   1.527  1.00  0.00    -0.004 C 
ATOM     11  C   UNL     1      16.483   3.610   1.634  1.00  0.00    -0.017 C 
ATOM     12  C   UNL     1      16.769   2.226   2.023  1.00  0.00     0.015 C 
ATOM     13  C   UNL     1      15.079   3.936   1.367  1.00  0.00     0.015 C 
ATOM     14  C   UNL     1      15.814   1.293   2.133  1.00  0.00     0.079 C 
ATOM     15  C   UNL     1      14.095   3.032   1.467  1.00  0.00     0.079 C 
ATOM     16  C   UNL     1      14.374   1.612   1.863  1.00  0.00     0.199 C 
ATOM     17  N   UNL     1      13.431   0.719   1.965  1.00  0.00    -0.235 N 
ATOM     18  C   UNL     1      13.717  -0.722   2.253  1.00  0.00     0.433 C 
ATOM     19  C   UNL     1      11.981   1.057   1.804  1.00  0.00     0.433 C 
BRANCH  10  20
ATOM     20  C   UNL     1      17.159   5.946   1.132  1.00  0.00    -0.017 A 
ATOM     21  C   UNL     1      16.631   6.843   2.071  1.00  0.00     0.009 A 
ATOM     22  C   UNL     1      17.385   6.377  -0.181  1.00  0.00     0.009 A 
ATOM     23  C   UNL     1      16.343   8.158   1.700  1.00  0.00     0.001 A 
ATOM     24  C   UNL     1      17.095   7.692  -0.549  1.00  0.00     0.001 A 
ATOM     25  C   UNL     1      16.577   8.581   0.392  1.00  0.00     0.000 A 
ENDBRANCH  10  20
ENDBRANCH   4  10
TORSDOF 3
ENDMDL
MODEL 6
REMARK VINA RESULT:    -6.818      3.771      5.555
REMARK INTER + INTRA:          -9.138
REMARK INTER:                  -8.049
REMARK INTRA:                  -1.089
REMARK UNBOUND:                -1.124
REMARK SMILES CN(C)c1ccc(C(=C2C=CC(=[N+](C)C)C=C2)c2ccccc2)cc1
REMARK SMILES IDX 4 1 5 2 6 3 7 4 24 5 25 6 2 7 1 8 3 9 8 10 9 11 10 12 17 13
REMARK SMILES IDX 11 14 16 15 12 16 13 17 14 18 15 19 18 20 19 21 23 22 20 23
REMARK SMILES IDX 22 24 21 25
REMARK H PARENT
ROOT
ATOM      1  C   UNL     1      13.712   0.639   3.012  1.00  0.00     0.036 A 
ATOM      2  C   UNL     1      13.889   1.184   1.727  1.00  0.00     0.026 A 
ATOM      3  C   UNL     1      14.991   1.986   1.395  1.00  0.00     0.011 A 
ATOM      4  C   UNL     1      15.956   2.286   2.354  1.00  0.00    -0.017 A 
ATOM      5  C   UNL     1      15.810   1.766   3.639  1.00  0.00     0.011 A 
ATOM      6  C   UNL     1      14.703   0.965   3.956  1.00  0.00     0.026 A 
ENDROOT
BRANCH   1   7
ATOM      7  N   UNL     1      12.596  -0.139   3.344  1.00  0.00    -0.378 N 
ATOM      8  C   UNL     1      12.565  -0.816   4.641  1.00  0.00     0.143 C 
ATOM      9  C   UNL     1      11.868  -0.820   2.272  1.00  0.00     0.143 C 
ENDBRANCH   1   7
BRANCH   4  10
ATOM     10  C   UNL     1      17.113   3.158   2.018  1.00  0.00    -0.004 C 
ATOM     11  C   UNL     1      16.955   4.511   1.899  1.00  0.00    -0.017 C 
ATOM     12  C   UNL     1      15.654   5.156   2.096  1.00  0.00     0.015 C 
ATOM     13  C   UNL     1      18.078   5.392   1.567  1.00  0.00     0.015 C 
ATOM     14  C   UNL     1      15.477   6.480   1.983  1.00  0.00     0.079 C 
ATOM     15  C   UNL     1      17.943   6.721   1.446  1.00  0.00     0.079 C 
ATOM     16  C   UNL     1      16.617   7.393   1.644  1.00  0.00     0.199 C 
ATOM     17  N   UNL     1      16.466   8.683   1.531  1.00  0.00    -0.235 N 
ATOM     18  C   UNL     1      15.127   9.346   1.619  1.00  0.00     0.433 C 
ATOM     19  C   UNL     1      17.618   9.611   1.302  1.00  0.00     0.433 C 
BRANCH  10  20
ATOM     20  C   UNL     1      18.443   2.525   1.815  1.00  0.00    -0.017 A 
ATOM     21  C   UNL     1      18.868   2.173   0.526  1.00  0.00     0.009 A 
ATOM     22  C   UNL     1      19.279   2.271   2.909  1.00  0.00     0.009 A 
ATOM     23  C   UNL     1      20.119   1.584   0.336  1.00  0.00     0.001 A 
ATOM     24  C   UNL     1      20.529   1.681   2.716  1.00  0.00     0.001 A 
ATOM     25  C   UNL     1      20.949   1.340   1.430  1.00  0.00     0.000 A 
ENDBRANCH  10  20
ENDBRANCH   4  10
TORSDOF 3
ENDMDL
MODEL 7
REMARK VINA RESULT:    -6.764      2.553      7.945
REMARK INTER + INTRA:          -9.074
REMARK INTER:                  -7.873
REMARK INTRA:                  -1.201
REMARK UNBOUND:                -1.124
REMARK SMILES CN(C)c1ccc(C(=C2C=CC(=[N+](C)C)C=C2)c2ccccc2)cc1
REMARK SMILES IDX 4 1 5 2 6 3 7 4 24 5 25 6 2 7 1 8 3 9 8 10 9 11 10 12 17 13
REMARK SMILES IDX 11 14 16 15 12 16 13 17 14 18 15 19 18 20 19 21 23 22 20 23
REMARK SMILES IDX 22 24 21 25
REMARK H PARENT
ROOT
ATOM      1  C   UNL     1      21.086   2.884   3.310  1.00  0.00     0.036 A 
ATOM      2  C   UNL     1      20.124   3.389   4.206  1.00  0.00     0.026 A 
ATOM      3  C   UNL     1      18.816   3.702   3.807  1.00  0.00     0.011 A 
ATOM      4  C   UNL     1      18.426   3.532   2.481  1.00  0.00    -0.017 A 
ATOM      5  C   UNL     1      19.354   3.038   1.566  1.00  0.00     0.011 A 
ATOM      6  C   UNL     1      20.659   2.729   1.979  1.00  0.00     0.026 A 
ENDROOT
BRANCH   1   7
ATOM      7  N   UNL     1      22.397   2.600   3.709  1.00  0.00    -0.378 N 
ATOM      8  C   UNL     1      23.427   3.626   3.539  1.00  0.00     0.143 C 
ATOM      9  C   UNL     1      22.878   1.220   3.622  1.00  0.00     0.143 C 
ENDBRANCH   1   7
BRANCH   4  10
ATOM     10  C   UNL     1      17.049   3.886   2.044  1.00  0.00    -0.004 C 
ATOM     11  C   UNL     1      16.058   2.945   2.029  1.00  0.00    -0.017 C 
ATOM     12  C   UNL     1      16.304   1.559   2.438  1.00  0.00     0.015 C 
ATOM     13  C   UNL     1      14.694   3.268   1.601  1.00  0.00     0.015 C 
ATOM     14  C   UNL     1      15.347   0.621   2.429  1.00  0.00     0.079 C 
ATOM     15  C   UNL     1      13.709   2.359   1.579  1.00  0.00     0.079 C 
ATOM     16  C   UNL     1      13.947   0.937   1.994  1.00  0.00     0.199 C 
ATOM     17  N   UNL     1      13.003   0.040   1.980  1.00  0.00    -0.235 N 
ATOM     18  C   UNL     1      13.260  -1.403   2.288  1.00  0.00     0.433 C 
ATOM     19  C   UNL     1      11.580   0.373   1.653  1.00  0.00     0.433 C 
BRANCH  10  20
ATOM     20  C   UNL     1      16.777   5.287   1.626  1.00  0.00    -0.017 A 
ATOM     21  C   UNL     1      16.961   5.674   0.291  1.00  0.00     0.009 A 
ATOM     22  C   UNL     1      16.340   6.232   2.563  1.00  0.00     0.009 A 
ATOM     23  C   UNL     1      16.699   6.987  -0.101  1.00  0.00     0.001 A 
ATOM     24  C   UNL     1      16.080   7.545   2.167  1.00  0.00     0.001 A 
ATOM     25  C   UNL     1      16.257   7.921   0.836  1.00  0.00     0.000 A 
ENDBRANCH  10  20
ENDBRANCH   4  10
TORSDOF 3
ENDMDL
MODEL 8
REMARK VINA RESULT:    -6.697      2.995      5.580
REMARK INTER + INTRA:          -8.995
REMARK INTER:                  -7.895
REMARK INTRA:                  -1.100
REMARK UNBOUND:                -1.124
REMARK SMILES CN(C)c1ccc(C(=C2C=CC(=[N+](C)C)C=C2)c2ccccc2)cc1
REMARK SMILES IDX 4 1 5 2 6 3 7 4 24 5 25 6 2 7 1 8 3 9 8 10 9 11 10 12 17 13
REMARK SMILES IDX 11 14 16 15 12 16 13 17 14 18 15 19 18 20 19 21 23 22 20 23
REMARK SMILES IDX 22 24 21 25
REMARK H PARENT
ROOT
ATOM      1  C   UNL     1      19.284   0.430   7.037  1.00  0.00     0.036 A 
ATOM      2  C   UNL     1      20.282   1.420   6.962  1.00  0.00     0.026 A 
ATOM      3  C   UNL     1      20.522   2.158   5.794  1.00  0.00     0.011 A 
ATOM      4  C   UNL     1      19.772   1.920   4.644  1.00  0.00    -0.017 A 
ATOM      5  C   UNL     1      18.778   0.943   4.683  1.00  0.00     0.011 A 
ATOM      6  C   UNL     1      18.550   0.212   5.858  1.00  0.00     0.026 A 
ENDROOT
BRANCH   1   7
ATOM      7  N   UNL     1      19.069  -0.323   8.198  1.00  0.00    -0.378 N 
ATOM      8  C   UNL     1      18.503   0.338   9.375  1.00  0.00     0.143 C 
ATOM      9  C   UNL     1      19.965  -1.444   8.489  1.00  0.00     0.143 C 
ENDBRANCH   1   7
BRANCH   4  10
ATOM     10  C   UNL     1      20.038   2.680   3.395  1.00  0.00    -0.004 C 
ATOM     11  C   UNL     1      19.181   3.661   2.979  1.00  0.00    -0.017 C 
ATOM     12  C   UNL     1      17.976   4.005   3.739  1.00  0.00     0.015 C 
ATOM     13  C   UNL     1      19.419   4.423   1.750  1.00  0.00     0.015 C 
ATOM     14  C   UNL     1      17.123   4.962   3.349  1.00  0.00     0.079 C 
ATOM     15  C   UNL     1      18.591   5.389   1.327  1.00  0.00     0.079 C 
ATOM     16  C   UNL     1      17.354   5.750   2.094  1.00  0.00     0.199 C 
ATOM     17  N   UNL     1      16.537   6.685   1.699  1.00  0.00    -0.235 N 
ATOM     18  C   UNL     1      15.246   6.975   2.401  1.00  0.00     0.433 C 
ATOM     19  C   UNL     1      16.818   7.549   0.509  1.00  0.00     0.433 C 
BRANCH  10  20
ATOM     20  C   UNL     1      21.256   2.348   2.608  1.00  0.00    -0.017 A 
ATOM     21  C   UNL     1      21.233   1.297   1.682  1.00  0.00     0.009 A 
ATOM     22  C   UNL     1      22.436   3.080   2.791  1.00  0.00     0.009 A 
ATOM     23  C   UNL     1      22.375   0.990   0.940  1.00  0.00     0.001 A 
ATOM     24  C   UNL     1      23.576   2.770   2.048  1.00  0.00     0.001 A 
ATOM     25  C   UNL     1      23.544   1.728   1.122  1.00  0.00     0.000 A 
ENDBRANCH  10  20
ENDBRANCH   4  10
TORSDOF 3
ENDMDL
MODEL 9
REMARK VINA RESULT:    -6.678      3.299      4.510
REMARK INTER + INTRA:          -8.973
REMARK INTER:                  -7.820
REMARK INTRA:                  -1.153
REMARK UNBOUND:                -1.124
REMARK SMILES CN(C)c1ccc(C(=C2C=CC(=[N+](C)C)C=C2)c2ccccc2)cc1
REMARK SMILES IDX 4 1 5 2 6 3 7 4 24 5 25 6 2 7 1 8 3 9 8 10 9 11 10 12 17 13
REMARK SMILES IDX 11 14 16 15 12 16 13 17 14 18 15 19 18 20 19 21 23 22 20 23
REMARK SMILES IDX 22 24 21 25
REMARK H PARENT
ROOT
ATOM      1  C   UNL     1      18.685   6.480   0.360  1.00  0.00     0.036 A 
ATOM      2  C   UNL     1      18.123   5.196   0.238  1.00  0.00     0.026 A 
ATOM      3  C   UNL     1      18.502   4.127   1.063  1.00  0.00     0.011 A 
ATOM      4  C   UNL     1      19.479   4.306   2.041  1.00  0.00    -0.017 A 
ATOM      5  C   UNL     1      20.059   5.565   2.187  1.00  0.00     0.011 A 
ATOM      6  C   UNL     1      19.670   6.625   1.353  1.00  0.00     0.026 A 
ENDROOT
BRANCH   1   7
ATOM      7  N   UNL     1      18.321   7.535  -0.486  1.00  0.00    -0.378 N 
ATOM      8  C   UNL     1      17.052   7.454  -1.212  1.00  0.00     0.143 C 
ATOM      9  C   UNL     1      19.374   8.293  -1.163  1.00  0.00     0.143 C 
ENDBRANCH   1   7
BRANCH   4  10
ATOM     10  C   UNL     1      19.906   3.172   2.902  1.00  0.00    -0.004 C 
ATOM     11  C   UNL     1      19.143   2.778   3.966  1.00  0.00    -0.017 C 
ATOM     12  C   UNL     1      17.882   3.446   4.301  1.00  0.00     0.015 C 
ATOM     13  C   UNL     1      19.542   1.664   4.831  1.00  0.00     0.015 C 
ATOM     14  C   UNL     1      17.120   3.075   5.339  1.00  0.00     0.079 C 
ATOM     15  C   UNL     1      18.807   1.262   5.878  1.00  0.00     0.079 C 
ATOM     16  C   UNL     1      17.516   1.938   6.232  1.00  0.00     0.199 C 
ATOM     17  N   UNL     1      16.788   1.562   7.245  1.00  0.00    -0.235 N 
ATOM     18  C   UNL     1      15.556   2.301   7.668  1.00  0.00     0.433 C 
ATOM     19  C   UNL     1      17.121   0.360   8.074  1.00  0.00     0.433 C 
BRANCH  10  20
ATOM     20  C   UNL     1      21.182   2.479   2.580  1.00  0.00    -0.017 A 
ATOM     21  C   UNL     1      22.361   2.821   3.256  1.00  0.00     0.009 A 
ATOM     22  C   UNL     1      21.216   1.482   1.597  1.00  0.00     0.009 A 
ATOM     23  C   UNL     1      23.557   2.165   2.957  1.00  0.00     0.001 A 
ATOM     24  C   UNL     1      22.413   0.829   1.300  1.00  0.00     0.001 A 
ATOM     25  C   UNL     1      23.581   1.169   1.981  1.00  0.00     0.000 A 
ENDBRANCH  10  20
ENDBRANCH   4  10
TORSDOF 3
ENDMDL
MODEL 10
REMARK VINA RESULT:    -6.662      3.844      6.176
REMARK INTER + INTRA:          -8.954
REMARK INTER:                  -7.774
REMARK INTRA:                  -1.180
REMARK UNBOUND:                -1.124
REMARK SMILES CN(C)c1ccc(C(=C2C=CC(=[N+](C)C)C=C2)c2ccccc2)cc1
REMARK SMILES IDX 4 1 5 2 6 3 7 4 24 5 25 6 2 7 1 8 3 9 8 10 9 11 10 12 17 13
REMARK SMILES IDX 11 14 16 15 12 16 13 17 14 18 15 19 18 20 19 21 23 22 20 23
REMARK SMILES IDX 22 24 21 25
REMARK H PARENT
ROOT
ATOM      1  C   UNL     1      13.632   0.369   2.943  1.00  0.00     0.036 A 
ATOM      2  C   UNL     1      14.485   0.913   3.922  1.00  0.00     0.026 A 
ATOM      3  C   UNL     1      15.420   1.917   3.630  1.00  0.00     0.011 A 
ATOM      4  C   UNL     1      15.544   2.407   2.331  1.00  0.00    -0.017 A 
ATOM      5  C   UNL     1      14.717   1.888   1.337  1.00  0.00     0.011 A 
ATOM      6  C   UNL     1      13.787   0.883   1.643  1.00  0.00     0.026 A 
ENDROOT
BRANCH   1   7
ATOM      7  N   UNL     1      12.720  -0.653   3.236  1.00  0.00    -0.378 N 
ATOM      8  C   UNL     1      11.630  -0.918   2.297  1.00  0.00     0.143 C 
ATOM      9  C   UNL     1      12.416  -0.946   4.637  1.00  0.00     0.143 C 
ENDBRANCH   1   7
BRANCH   4  10
ATOM     10  C   UNL     1      16.550   3.453   2.009  1.00  0.00    -0.004 C 
ATOM     11  C   UNL     1      17.859   3.119   1.796  1.00  0.00    -0.017 C 
ATOM     12  C   UNL     1      18.324   1.731   1.874  1.00  0.00     0.015 C 
ATOM     13  C   UNL     1      18.871   4.130   1.478  1.00  0.00     0.015 C 
ATOM     14  C   UNL     1      19.601   1.383   1.669  1.00  0.00     0.079 C 
ATOM     15  C   UNL     1      20.159   3.822   1.266  1.00  0.00     0.079 C 
ATOM     16  C   UNL     1      20.647   2.406   1.344  1.00  0.00     0.199 C 
ATOM     17  N   UNL     1      21.895   2.087   1.141  1.00  0.00    -0.235 N 
ATOM     18  C   UNL     1      22.408   0.693   1.324  1.00  0.00     0.433 C 
ATOM     19  C   UNL     1      22.921   3.088   0.707  1.00  0.00     0.433 C 
BRANCH  10  20
ATOM     20  C   UNL     1      16.101   4.868   1.923  1.00  0.00    -0.017 A 
ATOM     21  C   UNL     1      15.722   5.415   0.690  1.00  0.00     0.009 A 
ATOM     22  C   UNL     1      16.056   5.666   3.074  1.00  0.00     0.009 A 
ATOM     23  C   UNL     1      15.294   6.741   0.613  1.00  0.00     0.001 A 
ATOM     24  C   UNL     1      15.629   6.992   2.993  1.00  0.00     0.001 A 
ATOM     25  C   UNL     1      15.246   7.528   1.763  1.00  0.00     0.000 A 
ENDBRANCH  10  20
ENDBRANCH   4  10
TORSDOF 3
ENDMDL
MODEL 11
REMARK VINA RESULT:    -6.623      2.889      3.483
REMARK INTER + INTRA:          -8.908
REMARK INTER:                  -7.713
REMARK INTRA:                  -1.195
REMARK UNBOUND:                -1.124
REMARK SMILES CN(C)c1ccc(C(=C2C=CC(=[N+](C)C)C=C2)c2ccccc2)cc1
REMARK SMILES IDX 4 1 5 2 6 3 7 4 24 5 25 6 2 7 1 8 3 9 8 10 9 11 10 12 17 13
REMARK SMILES IDX 11 14 16 15 12 16 13 17 14 18 15 19 18 20 19 21 23 22 20 23
REMARK SMILES IDX 22 24 21 25
REMARK H PARENT
ROOT
ATOM      1  C   UNL     1      16.951   4.978   0.928  1.00  0.00     0.036 A 
ATOM      2  C   UNL     1      17.023   3.576   0.825  1.00  0.00     0.026 A 
ATOM      3  C   UNL     1      17.907   2.809   1.597  1.00  0.00     0.011 A 
ATOM      4  C   UNL     1      18.771   3.427   2.499  1.00  0.00    -0.017 A 
ATOM      5  C   UNL     1      18.730   4.814   2.623  1.00  0.00     0.011 A 
ATOM      6  C   UNL     1      17.840   5.569   1.845  1.00  0.00     0.026 A 
ENDROOT
BRANCH   1   7
ATOM      7  N   UNL     1      16.085   5.739   0.135  1.00  0.00    -0.378 N 
ATOM      8  C   UNL     1      16.620   6.892  -0.592  1.00  0.00     0.143 C 
ATOM      9  C   UNL     1      14.682   5.856   0.535  1.00  0.00     0.143 C 
ENDBRANCH   1   7
BRANCH   4  10
ATOM     10  C   UNL     1      19.731   2.623   3.301  1.00  0.00    -0.004 C 
ATOM     11  C   UNL     1      19.385   2.152   4.537  1.00  0.00    -0.017 C 
ATOM     12  C   UNL     1      18.066   2.413   5.119  1.00  0.00     0.015 C 
ATOM     13  C   UNL     1      20.312   1.360   5.348  1.00  0.00     0.015 C 
ATOM     14  C   UNL     1      17.706   1.961   6.329  1.00  0.00     0.079 C 
ATOM     15  C   UNL     1      19.991   0.888   6.562  1.00  0.00     0.079 C 
ATOM     16  C   UNL     1      18.645   1.149   7.170  1.00  0.00     0.199 C 
ATOM     17  N   UNL     1      18.314   0.700   8.347  1.00  0.00    -0.235 N 
ATOM     18  C   UNL     1      17.014   1.048   9.004  1.00  0.00     0.433 C 
ATOM     19  C   UNL     1      19.204  -0.203   9.144  1.00  0.00     0.433 C 
BRANCH  10  20
ATOM     20  C   UNL     1      21.075   2.346   2.728  1.00  0.00    -0.017 A 
ATOM     21  C   UNL     1      22.161   3.175   3.041  1.00  0.00     0.009 A 
ATOM     22  C   UNL     1      21.266   1.256   1.870  1.00  0.00     0.009 A 
ATOM     23  C   UNL     1      23.423   2.910   2.508  1.00  0.00     0.001 A 
ATOM     24  C   UNL     1      22.530   0.994   1.338  1.00  0.00     0.001 A 
ATOM     25  C   UNL     1      23.607   1.819   1.659  1.00  0.00     0.000 A 
ENDBRANCH  10  20
ENDBRANCH   4  10
TORSDOF 3
ENDMDL
MODEL 12
REMARK VINA RESULT:    -6.612      3.880      6.927
REMARK INTER + INTRA:          -8.895
REMARK INTER:                  -7.820
REMARK INTRA:                  -1.076
REMARK UNBOUND:                -1.124
REMARK SMILES CN(C)c1ccc(C(=C2C=CC(=[N+](C)C)C=C2)c2ccccc2)cc1
REMARK SMILES IDX 4 1 5 2 6 3 7 4 24 5 25 6 2 7 1 8 3 9 8 10 9 11 10 12 17 13
REMARK SMILES IDX 11 14 16 15 12 16 13 17 14 18 15 19 18 20 19 21 23 22 20 23
REMARK SMILES IDX 22 24 21 25
REMARK H PARENT
ROOT
ATOM      1  C   UNL     1      14.109   7.189   2.743  1.00  0.00     0.036 A 
ATOM      2  C   UNL     1      14.901   6.578   3.732  1.00  0.00     0.026 A 
ATOM      3  C   UNL     1      15.438   5.291   3.577  1.00  0.00     0.011 A 
ATOM      4  C   UNL     1      15.185   4.559   2.419  1.00  0.00    -0.017 A 
ATOM      5  C   UNL     1      14.401   5.133   1.420  1.00  0.00     0.011 A 
ATOM      6  C   UNL     1      13.870   6.420   1.589  1.00  0.00     0.026 A 
ENDROOT
BRANCH   1   7
ATOM      7  N   UNL     1      13.554   8.463   2.916  1.00  0.00    -0.378 N 
ATOM      8  C   UNL     1      14.069   9.574   2.115  1.00  0.00     0.143 C 
ATOM      9  C   UNL     1      13.043   8.836   4.236  1.00  0.00     0.143 C 
ENDBRANCH   1   7
BRANCH   4  10
ATOM     10  C   UNL     1      15.728   3.184   2.258  1.00  0.00    -0.004 C 
ATOM     11  C   UNL     1      17.057   2.983   2.008  1.00  0.00    -0.017 C 
ATOM     12  C   UNL     1      17.997   4.102   1.891  1.00  0.00     0.015 C 
ATOM     13  C   UNL     1      17.617   1.639   1.844  1.00  0.00     0.015 C 
ATOM     14  C   UNL     1      19.303   3.927   1.645  1.00  0.00     0.079 C 
ATOM     15  C   UNL     1      18.917   1.422   1.599  1.00  0.00     0.079 C 
ATOM     16  C   UNL     1      19.889   2.558   1.475  1.00  0.00     0.199 C 
ATOM     17  N   UNL     1      21.156   2.367   1.237  1.00  0.00    -0.235 N 
ATOM     18  C   UNL     1      22.110   3.498   1.004  1.00  0.00     0.433 C 
ATOM     19  C   UNL     1      21.768   1.001   1.176  1.00  0.00     0.433 C 
BRANCH  10  20
ATOM     20  C   UNL     1      14.792   2.034   2.375  1.00  0.00    -0.017 A 
ATOM     21  C   UNL     1      14.128   1.546   1.241  1.00  0.00     0.009 A 
ATOM     22  C   UNL     1      14.563   1.433   3.619  1.00  0.00     0.009 A 
ATOM     23  C   UNL     1      13.255   0.463   1.351  1.00  0.00     0.001 A 
ATOM     24  C   UNL     1      13.689   0.350   3.726  1.00  0.00     0.001 A 
ATOM     25  C   UNL     1      13.037  -0.135   2.592  1.00  0.00     0.000 A 
ENDBRANCH  10  20
ENDBRANCH   4  10
TORSDOF 3
ENDMDL
MODEL 13
REMARK VINA RESULT:    -6.601      3.377      7.351
REMARK INTER + INTRA:          -8.882
REMARK INTER:                  -7.752
REMARK INTRA:                  -1.130
REMARK UNBOUND:                -1.124
REMARK SMILES CN(C)c1ccc(C(=C2C=CC(=[N+](C)C)C=C2)c2ccccc2)cc1
REMARK SMILES IDX 4 1 5 2 6 3 7 4 24 5 25 6 2 7 1 8 3 9 8 10 9 11 10 12 17 13
REMARK SMILES IDX 11 14 16 15 12 16 13 17 14 18 15 19 18 20 19 21 23 22 20 23
REMARK SMILES IDX 22 24 21 25
REMARK H PARENT
ROOT
ATOM      1  C   UNL     1      16.051   8.505   1.589  1.00  0.00     0.036 A 
ATOM      2  C   UNL     1      16.766   7.731   0.656  1.00  0.00     0.026 A 
ATOM      3  C   UNL     1      17.081   6.383   0.880  1.00  0.00     0.011 A 
ATOM      4  C   UNL     1      16.699   5.760   2.067  1.00  0.00    -0.017 A 
ATOM      5  C   UNL     1      15.993   6.498   3.015  1.00  0.00     0.011 A 
ATOM      6  C   UNL     1      15.685   7.846   2.777  1.00  0.00     0.026 A 
ENDROOT
BRANCH   1   7
ATOM      7  N   UNL     1      15.764   9.858   1.370  1.00  0.00    -0.378 N 
ATOM      8  C   UNL     1      16.454  10.561   0.287  1.00  0.00     0.143 C 
ATOM      9  C   UNL     1      15.391  10.694   2.511  1.00  0.00     0.143 C 
ENDBRANCH   1   7
BRANCH   4  10
ATOM     10  C   UNL     1      17.052   4.339   2.324  1.00  0.00    -0.004 C 
ATOM     11  C   UNL     1      16.111   3.354   2.207  1.00  0.00    -0.017 C 
ATOM     12  C   UNL     1      14.728   3.650   1.824  1.00  0.00     0.015 C 
ATOM     13  C   UNL     1      16.433   1.946   2.457  1.00  0.00     0.015 C 
ATOM     14  C   UNL     1      13.790   2.700   1.704  1.00  0.00     0.079 C 
ATOM     15  C   UNL     1      15.525   0.966   2.346  1.00  0.00     0.079 C 
ATOM     16  C   UNL     1      14.105   1.256   1.957  1.00  0.00     0.199 C 
ATOM     17  N   UNL     1      13.208   0.317   1.845  1.00  0.00    -0.235 N 
ATOM     18  C   UNL     1      11.768   0.612   1.563  1.00  0.00     0.433 C 
ATOM     19  C   UNL     1      13.541  -1.136   1.987  1.00  0.00     0.433 C 
BRANCH  10  20
ATOM     20  C   UNL     1      18.451   4.015   2.713  1.00  0.00    -0.017 A 
ATOM     21  C   UNL     1      19.359   3.546   1.754  1.00  0.00     0.009 A 
ATOM     22  C   UNL     1      18.870   4.173   4.040  1.00  0.00     0.009 A 
ATOM     23  C   UNL     1      20.673   3.249   2.119  1.00  0.00     0.001 A 
ATOM     24  C   UNL     1      20.184   3.874   4.401  1.00  0.00     0.001 A 
ATOM     25  C   UNL     1      21.085   3.414   3.441  1.00  0.00     0.000 A 
ENDBRANCH  10  20
ENDBRANCH   4  10
TORSDOF 3
ENDMDL
MODEL 14
REMARK VINA RESULT:    -6.549      3.167      5.745
REMARK INTER + INTRA:          -8.822
REMARK INTER:                  -7.704
REMARK INTRA:                  -1.117
REMARK UNBOUND:                -1.124
REMARK SMILES CN(C)c1ccc(C(=C2C=CC(=[N+](C)C)C=C2)c2ccccc2)cc1
REMARK SMILES IDX 4 1 5 2 6 3 7 4 24 5 25 6 2 7 1 8 3 9 8 10 9 11 10 12 17 13
REMARK SMILES IDX 11 14 16 15 12 16 13 17 14 18 15 19 18 20 19 21 23 22 20 23
REMARK SMILES IDX 22 24 21 25
REMARK H PARENT
ROOT
ATOM      1  C   UNL     1      13.738   0.441   2.954  1.00  0.00     0.036 A 
ATOM      2  C   UNL     1      14.021   0.992   1.690  1.00  0.00     0.026 A 
ATOM      3  C   UNL     1      14.995   1.985   1.504  1.00  0.00     0.011 A 
ATOM      4  C   UNL     1      15.716   2.475   2.591  1.00  0.00    -0.017 A 
ATOM      5  C   UNL     1      15.458   1.954   3.857  1.00  0.00     0.011 A 
ATOM      6  C   UNL     1      14.481   0.962   4.029  1.00  0.00     0.026 A 
ENDROOT
BRANCH   1   7
ATOM      7  N   UNL     1      12.746  -0.530   3.136  1.00  0.00    -0.378 N 
ATOM      8  C   UNL     1      11.662  -0.627   2.157  1.00  0.00     0.143 C 
ATOM      9  C   UNL     1      12.386  -0.924   4.499  1.00  0.00     0.143 C 
ENDBRANCH   1   7
BRANCH   4  10
ATOM     10  C   UNL     1      16.731   3.546   2.406  1.00  0.00    -0.004 C 
ATOM     11  C   UNL     1      18.066   3.259   2.459  1.00  0.00    -0.017 C 
ATOM     12  C   UNL     1      18.553   1.897   2.696  1.00  0.00     0.015 C 
ATOM     13  C   UNL     1      19.086   4.296   2.282  1.00  0.00     0.015 C 
ATOM     14  C   UNL     1      19.858   1.594   2.753  1.00  0.00     0.079 C 
ATOM     15  C   UNL     1      20.400   4.034   2.330  1.00  0.00     0.079 C 
ATOM     16  C   UNL     1      20.912   2.645   2.574  1.00  0.00     0.199 C 
ATOM     17  N   UNL     1      22.185   2.371   2.624  1.00  0.00    -0.235 N 
ATOM     18  C   UNL     1      22.700   1.009   2.974  1.00  0.00     0.433 C 
ATOM     19  C   UNL     1      23.241   3.393   2.337  1.00  0.00     0.433 C 
BRANCH  10  20
ATOM     20  C   UNL     1      16.258   4.935   2.163  1.00  0.00    -0.017 A 
ATOM     21  C   UNL     1      15.953   5.776   3.241  1.00  0.00     0.009 A 
ATOM     22  C   UNL     1      16.111   5.413   0.854  1.00  0.00     0.009 A 
ATOM     23  C   UNL     1      15.517   7.082   3.012  1.00  0.00     0.001 A 
ATOM     24  C   UNL     1      15.673   6.718   0.628  1.00  0.00     0.001 A 
ATOM     25  C   UNL     1      15.378   7.552   1.706  1.00  0.00     0.000 A 
ENDBRANCH  10  20
ENDBRANCH   4  10
TORSDOF 3
ENDMDL
MODEL 15
REMARK VINA RESULT:    -6.412      3.570      6.715
REMARK INTER + INTRA:          -8.660
REMARK INTER:                  -7.473
REMARK INTRA:                  -1.187
REMARK UNBOUND:                -1.124
REMARK SMILES CN(C)c1ccc(C(=C2C=CC(=[N+](C)C)C=C2)c2ccccc2)cc1
REMARK SMILES IDX 4 1 5 2 6 3 7 4 24 5 25 6 2 7 1 8 3 9 8 10 9 11 10 12 17 13
REMARK SMILES IDX 11 14 16 15 12 16 13 17 14 18 15 19 18 20 19 21 23 22 20 23
REMARK SMILES IDX 22 24 21 25
REMARK H PARENT
ROOT
ATOM      1  C   UNL     1      18.687  -0.379   8.719  1.00  0.00     0.036 A 
ATOM      2  C   UNL     1      19.712  -0.512   7.763  1.00  0.00     0.026 A 
ATOM      3  C   UNL     1      20.230   0.584   7.058  1.00  0.00     0.011 A 
ATOM      4  C   UNL     1      19.723   1.864   7.277  1.00  0.00    -0.017 A 
ATOM      5  C   UNL     1      18.705   2.031   8.214  1.00  0.00     0.011 A 
ATOM      6  C   UNL     1      18.197   0.925   8.912  1.00  0.00     0.026 A 
ENDROOT
BRANCH   1   7
ATOM      7  N   UNL     1      18.157  -1.482   9.399  1.00  0.00    -0.378 N 
ATOM      8  C   UNL     1      18.759  -2.800   9.188  1.00  0.00     0.143 C 
ATOM      9  C   UNL     1      16.728  -1.497   9.712  1.00  0.00     0.143 C 
ENDBRANCH   1   7
BRANCH   4  10
ATOM     10  C   UNL     1      20.247   3.027   6.514  1.00  0.00    -0.004 C 
ATOM     11  C   UNL     1      19.781   3.306   5.260  1.00  0.00    -0.017 C 
ATOM     12  C   UNL     1      18.753   2.482   4.618  1.00  0.00     0.015 C 
ATOM     13  C   UNL     1      20.282   4.445   4.486  1.00  0.00     0.015 C 
ATOM     14  C   UNL     1      18.282   2.738   3.390  1.00  0.00     0.079 C 
ATOM     15  C   UNL     1      19.836   4.736   3.255  1.00  0.00     0.079 C 
ATOM     16  C   UNL     1      18.786   3.900   2.587  1.00  0.00     0.199 C 
ATOM     17  N   UNL     1      18.340   4.166   1.391  1.00  0.00    -0.235 N 
ATOM     18  C   UNL     1      17.373   3.273   0.677  1.00  0.00     0.433 C 
ATOM     19  C   UNL     1      18.757   5.385   0.629  1.00  0.00     0.433 C 
BRANCH  10  20
ATOM     20  C   UNL     1      21.290   3.878   7.146  1.00  0.00    -0.017 A 
ATOM     21  C   UNL     1      22.649   3.599   6.942  1.00  0.00     0.009 A 
ATOM     22  C   UNL     1      20.924   4.962   7.955  1.00  0.00     0.009 A 
ATOM     23  C   UNL     1      23.626   4.403   7.531  1.00  0.00     0.001 A 
ATOM     24  C   UNL     1      21.904   5.762   8.543  1.00  0.00     0.001 A 
ATOM     25  C   UNL     1      23.254   5.484   8.329  1.00  0.00     0.000 A 
ENDBRANCH  10  20
ENDBRANCH   4  10
TORSDOF 3
ENDMDL
MODEL 16
REMARK VINA RESULT:    -6.385      3.356      4.477
REMARK INTER + INTRA:          -8.628
REMARK INTER:                  -7.464
REMARK INTRA:                  -1.164
REMARK UNBOUND:                -1.124
REMARK SMILES CN(C)c1ccc(C(=C2C=CC(=[N+](C)C)C=C2)c2ccccc2)cc1
REMARK SMILES IDX 4 1 5 2 6 3 7 4 24 5 25 6 2 7 1 8 3 9 8 10 9 11 10 12 17 13
REMARK SMILES IDX 11 14 16 15 12 16 13 17 14 18 15 19 18 20 19 21 23 22 20 23
REMARK SMILES IDX 22 24 21 25
REMARK H PARENT
ROOT
ATOM      1  C   UNL     1      14.881   4.897   1.917  1.00  0.00     0.036 A 
ATOM      2  C   UNL     1      15.959   5.331   2.711  1.00  0.00     0.026 A 
ATOM      3  C   UNL     1      16.943   4.452   3.187  1.00  0.00     0.011 A 
ATOM      4  C   UNL     1      16.874   3.092   2.893  1.00  0.00    -0.017 A 
ATOM      5  C   UNL     1      15.817   2.628   2.112  1.00  0.00     0.011 A 
ATOM      6  C   UNL     1      14.839   3.518   1.643  1.00  0.00     0.026 A 
ENDROOT
BRANCH   1   7
ATOM      7  N   UNL     1      13.887   5.775   1.468  1.00  0.00    -0.378 N 
ATOM      8  C   UNL     1      13.243   5.516   0.180  1.00  0.00     0.143 C 
ATOM      9  C   UNL     1      13.970   7.187   1.846  1.00  0.00     0.143 C 
ENDBRANCH   1   7
BRANCH   4  10
ATOM     10  C   UNL     1      17.898   2.150   3.415  1.00  0.00    -0.004 C 
ATOM     11  C   UNL     1      17.759   1.583   4.652  1.00  0.00    -0.017 C 
ATOM     12  C   UNL     1      16.605   1.873   5.507  1.00  0.00     0.015 C 
ATOM     13  C   UNL     1      18.755   0.654   5.191  1.00  0.00     0.015 C 
ATOM     14  C   UNL     1      16.449   1.329   6.722  1.00  0.00     0.079 C 
ATOM     15  C   UNL     1      18.635   0.087   6.400  1.00  0.00     0.079 C 
ATOM     16  C   UNL     1      17.460   0.376   7.286  1.00  0.00     0.199 C 
ATOM     17  N   UNL     1      17.326  -0.164   8.464  1.00  0.00    -0.235 N 
ATOM     18  C   UNL     1      16.213   0.204   9.396  1.00  0.00     0.433 C 
ATOM     19  C   UNL     1      18.273  -1.199   8.988  1.00  0.00     0.433 C 
BRANCH  10  20
ATOM     20  C   UNL     1      19.077   1.841   2.564  1.00  0.00    -0.017 A 
ATOM     21  C   UNL     1      18.985   0.873   1.554  1.00  0.00     0.009 A 
ATOM     22  C   UNL     1      20.291   2.511   2.766  1.00  0.00     0.009 A 
ATOM     23  C   UNL     1      20.090   0.588   0.751  1.00  0.00     0.001 A 
ATOM     24  C   UNL     1      21.395   2.223   1.961  1.00  0.00     0.001 A 
ATOM     25  C   UNL     1      21.293   1.264   0.954  1.00  0.00     0.000 A 
ENDBRANCH  10  20
ENDBRANCH   4  10
TORSDOF 3
ENDMDL
MODEL 17
REMARK VINA RESULT:    -6.361      2.502      7.714
REMARK INTER + INTRA:          -8.600
REMARK INTER:                  -7.443
REMARK INTRA:                  -1.157
REMARK UNBOUND:                -1.124
REMARK SMILES CN(C)c1ccc(C(=C2C=CC(=[N+](C)C)C=C2)c2ccccc2)cc1
REMARK SMILES IDX 4 1 5 2 6 3 7 4 24 5 25 6 2 7 1 8 3 9 8 10 9 11 10 12 17 13
REMARK SMILES IDX 11 14 16 15 12 16 13 17 14 18 15 19 18 20 19 21 23 22 20 23
REMARK SMILES IDX 22 24 21 25
REMARK H PARENT
ROOT
ATOM      1  C   UNL     1      21.416   4.223   4.272  1.00  0.00     0.036 A 
ATOM      2  C   UNL     1      21.228   3.753   2.958  1.00  0.00     0.026 A 
ATOM      3  C   UNL     1      20.055   4.001   2.231  1.00  0.00     0.011 A 
ATOM      4  C   UNL     1      19.011   4.725   2.805  1.00  0.00    -0.017 A 
ATOM      5  C   UNL     1      19.162   5.202   4.106  1.00  0.00     0.011 A 
ATOM      6  C   UNL     1      20.341   4.946   4.821  1.00  0.00     0.026 A 
ENDROOT
BRANCH   1   7
ATOM      7  N   UNL     1      22.579   3.948   5.001  1.00  0.00    -0.378 N 
ATOM      8  C   UNL     1      23.376   2.774   4.645  1.00  0.00     0.143 C 
ATOM      9  C   UNL     1      22.631   4.326   6.414  1.00  0.00     0.143 C 
ENDBRANCH   1   7
BRANCH   4  10
ATOM     10  C   UNL     1      17.754   4.969   2.051  1.00  0.00    -0.004 C 
ATOM     11  C   UNL     1      16.745   4.047   2.059  1.00  0.00    -0.017 C 
ATOM     12  C   UNL     1      16.855   2.790   2.805  1.00  0.00     0.015 C 
ATOM     13  C   UNL     1      15.496   4.262   1.322  1.00  0.00     0.015 C 
ATOM     14  C   UNL     1      15.878   1.873   2.826  1.00  0.00     0.079 C 
ATOM     15  C   UNL     1      14.495   3.370   1.319  1.00  0.00     0.079 C 
ATOM     16  C   UNL     1      14.596   2.080   2.077  1.00  0.00     0.199 C 
ATOM     17  N   UNL     1      13.634   1.200   2.086  1.00  0.00    -0.235 N 
ATOM     18  C   UNL     1      13.772  -0.134   2.750  1.00  0.00     0.433 C 
ATOM     19  C   UNL     1      12.310   1.449   1.432  1.00  0.00     0.433 C 
BRANCH  10  20
ATOM     20  C   UNL     1      17.620   6.239   1.287  1.00  0.00    -0.017 A 
ATOM     21  C   UNL     1      18.265   6.391   0.052  1.00  0.00     0.009 A 
ATOM     22  C   UNL     1      16.853   7.293   1.799  1.00  0.00     0.009 A 
ATOM     23  C   UNL     1      18.133   7.581  -0.666  1.00  0.00     0.001 A 
ATOM     24  C   UNL     1      16.725   8.482   1.078  1.00  0.00     0.001 A 
ATOM     25  C   UNL     1      17.363   8.624  -0.153  1.00  0.00     0.000 A 
ENDBRANCH  10  20
ENDBRANCH   4  10
TORSDOF 3
ENDMDL
MODEL 18
REMARK VINA RESULT:    -6.354      1.312      6.504
REMARK INTER + INTRA:          -8.592
REMARK INTER:                  -7.386
REMARK INTRA:                  -1.207
REMARK UNBOUND:                -1.124
REMARK SMILES CN(C)c1ccc(C(=C2C=CC(=[N+](C)C)C=C2)c2ccccc2)cc1
REMARK SMILES IDX 4 1 5 2 6 3 7 4 24 5 25 6 2 7 1 8 3 9 8 10 9 11 10 12 17 13
REMARK SMILES IDX 11 14 16 15 12 16 13 17 14 18 15 19 18 20 19 21 23 22 20 23
REMARK SMILES IDX 22 24 21 25
REMARK H PARENT
ROOT
ATOM      1  C   UNL     1      21.437   4.943   7.227  1.00  0.00     0.036 A 
ATOM      2  C   UNL     1      21.584   3.546   7.132  1.00  0.00     0.026 A 
ATOM      3  C   UNL     1      21.207   2.826   5.989  1.00  0.00     0.011 A 
ATOM      4  C   UNL     1      20.651   3.485   4.894  1.00  0.00    -0.017 A 
ATOM      5  C   UNL     1      20.487   4.868   4.957  1.00  0.00     0.011 A 
ATOM      6  C   UNL     1      20.868   5.575   6.107  1.00  0.00     0.026 A 
ENDROOT
BRANCH   1   7
ATOM      7  N   UNL     1      21.790   5.651   8.382  1.00  0.00    -0.378 N 
ATOM      8  C   UNL     1      21.018   6.839   8.747  1.00  0.00     0.143 C 
ATOM      9  C   UNL     1      23.195   5.676   8.793  1.00  0.00     0.143 C 
ENDBRANCH   1   7
BRANCH   4  10
ATOM     10  C   UNL     1      20.223   2.727   3.689  1.00  0.00    -0.004 C 
ATOM     11  C   UNL     1      18.936   2.285   3.563  1.00  0.00    -0.017 C 
ATOM     12  C   UNL     1      17.929   2.538   4.597  1.00  0.00     0.015 C 
ATOM     13  C   UNL     1      18.490   1.533   2.387  1.00  0.00     0.015 C 
ATOM     14  C   UNL     1      16.662   2.113   4.494  1.00  0.00     0.079 C 
ATOM     15  C   UNL     1      17.232   1.092   2.245  1.00  0.00     0.079 C 
ATOM     16  C   UNL     1      16.192   1.343   3.296  1.00  0.00     0.199 C 
ATOM     17  N   UNL     1      14.964   0.923   3.177  1.00  0.00    -0.235 N 
ATOM     18  C   UNL     1      13.952   1.075   4.269  1.00  0.00     0.433 C 
ATOM     19  C   UNL     1      14.461   0.251   1.936  1.00  0.00     0.433 C 
BRANCH  10  20
ATOM     20  C   UNL     1      21.229   2.459   2.627  1.00  0.00    -0.017 A 
ATOM     21  C   UNL     1      22.014   1.300   2.673  1.00  0.00     0.009 A 
ATOM     22  C   UNL     1      21.402   3.366   1.573  1.00  0.00     0.009 A 
ATOM     23  C   UNL     1      22.953   1.047   1.672  1.00  0.00     0.001 A 
ATOM     24  C   UNL     1      22.342   3.111   0.574  1.00  0.00     0.001 A 
ATOM     25  C   UNL     1      23.115   1.951   0.623  1.00  0.00     0.000 A 
ENDBRANCH  10  20
ENDBRANCH   4  10
TORSDOF 3
ENDMDL
