MODEL 1
REMARK VINA RESULT:    -7.660      0.000      0.000
REMARK INTER + INTRA:         -10.052
REMARK INTER:                  -9.004
REMARK INTRA:                  -1.048
REMARK UNBOUND:                -1.048
REMARK SMILES CN(C)c1ccc(C(=C2C=CC(=[N+](C)C)C=C2)c2ccccc2)cc1
REMARK SMILES IDX 4 1 5 2 6 3 7 4 24 5 25 6 2 7 1 8 3 9 8 10 9 11 10 12 17 13
REMARK SMILES IDX 11 14 16 15 12 16 13 17 14 18 15 19 18 20 19 21 23 22 20 23
REMARK SMILES IDX 22 24 21 25
REMARK H PARENT
ROOT
ATOM      1  C   UNL     1      32.554  -8.381 -19.653  1.00  0.00     0.036 A 
ATOM      2  C   UNL     1      31.744  -9.152 -20.508  1.00  0.00     0.026 A 
ATOM      3  C   UNL     1      30.403  -8.830 -20.766  1.00  0.00     0.011 A 
ATOM      4  C   UNL     1      29.817  -7.720 -20.160  1.00  0.00    -0.017 A 
ATOM      5  C   UNL     1      30.590  -6.937 -19.305  1.00  0.00     0.011 A 
ATOM      6  C   UNL     1      31.929  -7.271 -19.055  1.00  0.00     0.026 A 
ENDROOT
BRANCH   1   7
ATOM      7  N   UNL     1      33.883  -8.724 -19.378  1.00  0.00    -0.378 N 
ATOM      8  C   UNL     1      34.947  -7.792 -19.757  1.00  0.00     0.143 C 
ATOM      9  C   UNL     1      34.264 -10.137 -19.391  1.00  0.00     0.143 C 
ENDBRANCH   1   7
BRANCH   4  10
ATOM     10  C   UNL     1      28.389  -7.388 -20.408  1.00  0.00    -0.004 C 
ATOM     11  C   UNL     1      28.033  -6.566 -21.441  1.00  0.00    -0.017 C 
ATOM     12  C   UNL     1      29.031  -5.984 -22.343  1.00  0.00     0.015 C 
ATOM     13  C   UNL     1      26.634  -6.221 -21.706  1.00  0.00     0.015 C 
ATOM     14  C   UNL     1      28.704  -5.177 -23.361  1.00  0.00     0.079 C 
ATOM     15  C   UNL     1      26.265  -5.418 -22.714  1.00  0.00     0.079 C 
ATOM     16  C   UNL     1      27.277  -4.815 -23.643  1.00  0.00     0.199 C 
ATOM     17  N   UNL     1      26.938  -4.033 -24.629  1.00  0.00    -0.235 N 
ATOM     18  C   UNL     1      27.949  -3.342 -25.491  1.00  0.00     0.433 C 
ATOM     19  C   UNL     1      25.510  -3.757 -24.983  1.00  0.00     0.433 C 
BRANCH  10  20
ATOM     20  C   UNL     1      27.359  -7.968 -19.506  1.00  0.00    -0.017 A 
ATOM     21  C   UNL     1      27.244  -7.518 -18.184  1.00  0.00     0.009 A 
ATOM     22  C   UNL     1      26.499  -8.972 -19.969  1.00  0.00     0.009 A 
ATOM     23  C   UNL     1      26.272  -8.059 -17.340  1.00  0.00     0.001 A 
ATOM     24  C   UNL     1      25.530  -9.512 -19.122  1.00  0.00     0.001 A 
ATOM     25  C   UNL     1      25.416  -9.054 -17.810  1.00  0.00     0.000 A 
ENDBRANCH  10  20
ENDBRANCH   4  10
TORSDOF 3
ENDMDL
MODEL 2
REMARK VINA RESULT:    -7.334      1.921      6.816
REMARK INTER + INTRA:          -9.669
REMARK INTER:                  -8.470
REMARK INTRA:                  -1.199
REMARK UNBOUND:                -1.048
REMARK SMILES CN(C)c1ccc(C(=C2C=CC(=[N+](C)C)C=C2)c2ccccc2)cc1
REMARK SMILES IDX 4 1 5 2 6 3 7 4 24 5 25 6 2 7 1 8 3 9 8 10 9 11 10 12 17 13
REMARK SMILES IDX 11 14 16 15 12 16 13 17 14 18 15 19 18 20 19 21 23 22 20 23
REMARK SMILES IDX 22 24 21 25
REMARK H PARENT
ROOT
ATOM      1  C   UNL     1      28.688  -5.962 -25.537  1.00  0.00     0.036 A 
ATOM      2  C   UNL     1      28.619  -5.306 -24.294  1.00  0.00     0.026 A 
ATOM      3  C   UNL     1      29.060  -5.901 -23.103  1.00  0.00     0.011 A 
ATOM      4  C   UNL     1      29.580  -7.194 -23.114  1.00  0.00    -0.017 A 
ATOM      5  C   UNL     1      29.659  -7.875 -24.327  1.00  0.00     0.011 A 
ATOM      6  C   UNL     1      29.213  -7.267 -25.510  1.00  0.00     0.026 A 
ENDROOT
BRANCH   1   7
ATOM      7  N   UNL     1      28.219  -5.372 -26.717  1.00  0.00    -0.378 N 
ATOM      8  C   UNL     1      29.183  -4.754 -27.629  1.00  0.00     0.143 C 
ATOM      9  C   UNL     1      26.886  -4.770 -26.724  1.00  0.00     0.143 C 
ENDBRANCH   1   7
BRANCH   4  10
ATOM     10  C   UNL     1      30.025  -7.842 -21.852  1.00  0.00    -0.004 C 
ATOM     11  C   UNL     1      31.334  -7.784 -21.462  1.00  0.00    -0.017 C 
ATOM     12  C   UNL     1      32.346  -7.086 -22.260  1.00  0.00     0.015 C 
ATOM     13  C   UNL     1      31.800  -8.416 -20.225  1.00  0.00     0.015 C 
ATOM     14  C   UNL     1      33.634  -7.018 -21.897  1.00  0.00     0.079 C 
ATOM     15  C   UNL     1      33.079  -8.369 -19.825  1.00  0.00     0.079 C 
ATOM     16  C   UNL     1      34.124  -7.660 -20.634  1.00  0.00     0.199 C 
ATOM     17  N   UNL     1      35.372  -7.604 -20.262  1.00  0.00    -0.235 N 
ATOM     18  C   UNL     1      36.439  -6.992 -21.117  1.00  0.00     0.433 C 
ATOM     19  C   UNL     1      35.847  -8.146 -18.950  1.00  0.00     0.433 C 
BRANCH  10  20
ATOM     20  C   UNL     1      29.015  -8.554 -21.026  1.00  0.00    -0.017 A 
ATOM     21  C   UNL     1      28.347  -7.883 -19.993  1.00  0.00     0.009 A 
ATOM     22  C   UNL     1      28.725  -9.903 -21.270  1.00  0.00     0.009 A 
ATOM     23  C   UNL     1      27.394  -8.551 -19.222  1.00  0.00     0.001 A 
ATOM     24  C   UNL     1      27.772 -10.568 -20.497  1.00  0.00     0.001 A 
ATOM     25  C   UNL     1      27.106  -9.891 -19.476  1.00  0.00     0.000 A 
ENDBRANCH  10  20
ENDBRANCH   4  10
TORSDOF 3
ENDMDL
MODEL 3
REMARK VINA RESULT:    -6.713      2.455      7.170
REMARK INTER + INTRA:          -8.939
REMARK INTER:                  -7.751
REMARK INTRA:                  -1.188
REMARK UNBOUND:                -1.048
REMARK SMILES CN(C)c1ccc(C(=C2C=CC(=[N+](C)C)C=C2)c2ccccc2)cc1
REMARK SMILES IDX 4 1 5 2 6 3 7 4 24 5 25 6 2 7 1 8 3 9 8 10 9 11 10 12 17 13
REMARK SMILES IDX 11 14 16 15 12 16 13 17 14 18 15 19 18 20 19 21 23 22 20 23
REMARK SMILES IDX 22 24 21 25
REMARK H PARENT
ROOT
ATOM      1  C   UNL     1      27.099  -8.692 -18.957  1.00  0.00     0.036 A 
ATOM      2  C   UNL     1      27.526  -7.352 -18.999  1.00  0.00     0.026 A 
ATOM      3  C   UNL     1      28.521  -6.908 -19.881  1.00  0.00     0.011 A 
ATOM      4  C   UNL     1      29.139  -7.802 -20.753  1.00  0.00    -0.017 A 
ATOM      5  C   UNL     1      28.743  -9.138 -20.735  1.00  0.00     0.011 A 
ATOM      6  C   UNL     1      27.746  -9.569 -19.846  1.00  0.00     0.026 A 
ENDROOT
BRANCH   1   7
ATOM      7  N   UNL     1      26.124  -9.135 -18.054  1.00  0.00    -0.378 N 
ATOM      8  C   UNL     1      24.968  -9.873 -18.566  1.00  0.00     0.143 C 
ATOM      9  C   UNL     1      25.870  -8.345 -16.848  1.00  0.00     0.143 C 
ENDBRANCH   1   7
BRANCH   4  10
ATOM     10  C   UNL     1      30.214  -7.345 -21.673  1.00  0.00    -0.004 C 
ATOM     11  C   UNL     1      31.521  -7.341 -21.272  1.00  0.00    -0.017 C 
ATOM     12  C   UNL     1      31.918  -7.784 -19.933  1.00  0.00     0.015 C 
ATOM     13  C   UNL     1      32.598  -6.893 -22.158  1.00  0.00     0.015 C 
ATOM     14  C   UNL     1      33.193  -7.788 -19.520  1.00  0.00     0.079 C 
ATOM     15  C   UNL     1      33.886  -6.882 -21.784  1.00  0.00     0.079 C 
ATOM     16  C   UNL     1      34.305  -7.333 -20.416  1.00  0.00     0.199 C 
ATOM     17  N   UNL     1      35.551  -7.329 -20.033  1.00  0.00    -0.235 N 
ATOM     18  C   UNL     1      35.964  -7.674 -18.635  1.00  0.00     0.433 C 
ATOM     19  C   UNL     1      36.677  -6.981 -20.958  1.00  0.00     0.433 C 
BRANCH  10  20
ATOM     20  C   UNL     1      29.833  -6.891 -23.037  1.00  0.00    -0.017 A 
ATOM     21  C   UNL     1      29.662  -7.824 -24.069  1.00  0.00     0.009 A 
ATOM     22  C   UNL     1      29.647  -5.528 -23.302  1.00  0.00     0.009 A 
ATOM     23  C   UNL     1      29.299  -7.397 -25.348  1.00  0.00     0.001 A 
ATOM     24  C   UNL     1      29.284  -5.105 -24.582  1.00  0.00     0.001 A 
ATOM     25  C   UNL     1      29.109  -6.040 -25.602  1.00  0.00     0.000 A 
ENDBRANCH  10  20
ENDBRANCH   4  10
TORSDOF 3
ENDMDL
MODEL 4
REMARK VINA RESULT:    -6.678      2.656      5.872
REMARK INTER + INTRA:          -8.897
REMARK INTER:                  -7.773
REMARK INTRA:                  -1.124
REMARK UNBOUND:                -1.048
REMARK SMILES CN(C)c1ccc(C(=C2C=CC(=[N+](C)C)C=C2)c2ccccc2)cc1
REMARK SMILES IDX 4 1 5 2 6 3 7 4 24 5 25 6 2 7 1 8 3 9 8 10 9 11 10 12 17 13
REMARK SMILES IDX 11 14 16 15 12 16 13 17 14 18 15 19 18 20 19 21 23 22 20 23
REMARK SMILES IDX 22 24 21 25
REMARK H PARENT
ROOT
ATOM      1  C   UNL     1      27.264  -8.396 -18.968  1.00  0.00     0.036 A 
ATOM      2  C   UNL     1      28.056  -7.278 -18.646  1.00  0.00     0.026 A 
ATOM      3  C   UNL     1      29.283  -7.019 -19.273  1.00  0.00     0.011 A 
ATOM      4  C   UNL     1      29.772  -7.888 -20.247  1.00  0.00    -0.017 A 
ATOM      5  C   UNL     1      29.015  -9.008 -20.588  1.00  0.00     0.011 A 
ATOM      6  C   UNL     1      27.790  -9.254 -19.951  1.00  0.00     0.026 A 
ENDROOT
BRANCH   1   7
ATOM      7  N   UNL     1      26.053  -8.662 -18.318  1.00  0.00    -0.378 N 
ATOM      8  C   UNL     1      25.938  -8.368 -16.889  1.00  0.00     0.143 C 
ATOM      9  C   UNL     1      25.230  -9.777 -18.789  1.00  0.00     0.143 C 
ENDBRANCH   1   7
BRANCH   4  10
ATOM     10  C   UNL     1      31.085  -7.636 -20.898  1.00  0.00    -0.004 C 
ATOM     11  C   UNL     1      31.155  -6.985 -22.098  1.00  0.00    -0.017 C 
ATOM     12  C   UNL     1      29.953  -6.511 -22.789  1.00  0.00     0.015 C 
ATOM     13  C   UNL     1      32.435  -6.726 -22.762  1.00  0.00     0.015 C 
ATOM     14  C   UNL     1      29.999  -5.872 -23.967  1.00  0.00     0.079 C 
ATOM     15  C   UNL     1      32.524  -6.089 -23.938  1.00  0.00     0.079 C 
ATOM     16  C   UNL     1      31.302  -5.600 -24.657  1.00  0.00     0.199 C 
ATOM     17  N   UNL     1      31.368  -4.979 -25.801  1.00  0.00    -0.235 N 
ATOM     18  C   UNL     1      30.147  -4.586 -26.574  1.00  0.00     0.433 C 
ATOM     19  C   UNL     1      32.669  -4.607 -26.441  1.00  0.00     0.433 C 
BRANCH  10  20
ATOM     20  C   UNL     1      32.318  -8.107 -20.213  1.00  0.00    -0.017 A 
ATOM     21  C   UNL     1      32.648  -9.469 -20.213  1.00  0.00     0.009 A 
ATOM     22  C   UNL     1      33.157  -7.195 -19.560  1.00  0.00     0.009 A 
ATOM     23  C   UNL     1      33.809  -9.910 -19.576  1.00  0.00     0.001 A 
ATOM     24  C   UNL     1      34.316  -7.639 -18.923  1.00  0.00     0.001 A 
ATOM     25  C   UNL     1      34.642  -8.995 -18.933  1.00  0.00     0.000 A 
ENDBRANCH  10  20
ENDBRANCH   4  10
TORSDOF 3
ENDMDL
MODEL 5
REMARK VINA RESULT:    -6.334      2.418      5.659
REMARK INTER + INTRA:          -8.493
REMARK INTER:                  -7.357
REMARK INTRA:                  -1.136
REMARK UNBOUND:                -1.048
REMARK SMILES CN(C)c1ccc(C(=C2C=CC(=[N+](C)C)C=C2)c2ccccc2)cc1
REMARK SMILES IDX 4 1 5 2 6 3 7 4 24 5 25 6 2 7 1 8 3 9 8 10 9 11 10 12 17 13
REMARK SMILES IDX 11 14 16 15 12 16 13 17 14 18 15 19 18 20 19 21 23 22 20 23
REMARK SMILES IDX 22 24 21 25
REMARK H PARENT
ROOT
ATOM      1  C   UNL     1      27.304  -8.675 -18.879  1.00  0.00     0.036 A 
ATOM      2  C   UNL     1      27.943  -7.447 -18.626  1.00  0.00     0.026 A 
ATOM      3  C   UNL     1      29.042  -7.003 -19.375  1.00  0.00     0.011 A 
ATOM      4  C   UNL     1      29.555  -7.789 -20.406  1.00  0.00    -0.017 A 
ATOM      5  C   UNL     1      28.948  -9.013 -20.681  1.00  0.00     0.011 A 
ATOM      6  C   UNL     1      27.849  -9.444 -19.923  1.00  0.00     0.026 A 
ENDROOT
BRANCH   1   7
ATOM      7  N   UNL     1      26.224  -9.124 -18.109  1.00  0.00    -0.378 N 
ATOM      8  C   UNL     1      25.114  -9.807 -18.778  1.00  0.00     0.143 C 
ATOM      9  C   UNL     1      25.856  -8.377 -16.906  1.00  0.00     0.143 C 
ENDBRANCH   1   7
BRANCH   4  10
ATOM     10  C   UNL     1      30.737  -7.338 -21.187  1.00  0.00    -0.004 C 
ATOM     11  C   UNL     1      30.584  -6.790 -22.430  1.00  0.00    -0.017 C 
ATOM     12  C   UNL     1      29.263  -6.623 -23.042  1.00  0.00     0.015 C 
ATOM     13  C   UNL     1      31.732  -6.340 -23.221  1.00  0.00     0.015 C 
ATOM     14  C   UNL     1      29.091  -6.090 -24.260  1.00  0.00     0.079 C 
ATOM     15  C   UNL     1      31.602  -5.800 -24.442  1.00  0.00     0.079 C 
ATOM     16  C   UNL     1      30.256  -5.625 -25.080  1.00  0.00     0.199 C 
ATOM     17  N   UNL     1      30.110  -5.103 -26.265  1.00  0.00    -0.235 N 
ATOM     18  C   UNL     1      28.781  -5.026 -26.951  1.00  0.00     0.433 C 
ATOM     19  C   UNL     1      31.257  -4.536 -27.043  1.00  0.00     0.433 C 
BRANCH  10  20
ATOM     20  C   UNL     1      32.087  -7.497 -20.584  1.00  0.00    -0.017 A 
ATOM     21  C   UNL     1      32.742  -6.394 -20.018  1.00  0.00     0.009 A 
ATOM     22  C   UNL     1      32.717  -8.748 -20.581  1.00  0.00     0.009 A 
ATOM     23  C   UNL     1      34.006  -6.546 -19.447  1.00  0.00     0.001 A 
ATOM     24  C   UNL     1      33.982  -8.896 -20.011  1.00  0.00     0.001 A 
ATOM     25  C   UNL     1      34.624  -7.796 -19.443  1.00  0.00     0.000 A 
ENDBRANCH  10  20
ENDBRANCH   4  10
TORSDOF 3
ENDMDL
MODEL 6
REMARK VINA RESULT:    -5.976      2.778      6.235
REMARK INTER + INTRA:          -8.072
REMARK INTER:                  -6.882
REMARK INTRA:                  -1.190
REMARK UNBOUND:                -1.048
REMARK SMILES CN(C)c1ccc(C(=C2C=CC(=[N+](C)C)C=C2)c2ccccc2)cc1
REMARK SMILES IDX 4 1 5 2 6 3 7 4 24 5 25 6 2 7 1 8 3 9 8 10 9 11 10 12 17 13
REMARK SMILES IDX 11 14 16 15 12 16 13 17 14 18 15 19 18 20 19 21 23 22 20 23
REMARK SMILES IDX 22 24 21 25
REMARK H PARENT
ROOT
ATOM      1  C   UNL     1      28.293 -11.361 -21.383  1.00  0.00     0.036 A 
ATOM      2  C   UNL     1      29.216 -10.675 -22.195  1.00  0.00     0.026 A 
ATOM      3  C   UNL     1      29.517  -9.318 -22.009  1.00  0.00     0.011 A 
ATOM      4  C   UNL     1      28.888  -8.589 -21.001  1.00  0.00    -0.017 A 
ATOM      5  C   UNL     1      27.966  -9.237 -20.181  1.00  0.00     0.011 A 
ATOM      6  C   UNL     1      27.674 -10.595 -20.379  1.00  0.00     0.026 A 
ENDROOT
BRANCH   1   7
ATOM      7  N   UNL     1      27.977 -12.709 -21.592  1.00  0.00    -0.378 N 
ATOM      8  C   UNL     1      29.031 -13.714 -21.445  1.00  0.00     0.143 C 
ATOM      9  C   UNL     1      26.931 -13.047 -22.558  1.00  0.00     0.143 C 
ENDBRANCH   1   7
BRANCH   4  10
ATOM     10  C   UNL     1      29.182  -7.144 -20.814  1.00  0.00    -0.004 C 
ATOM     11  C   UNL     1      30.259  -6.741 -20.075  1.00  0.00    -0.017 C 
ATOM     12  C   UNL     1      31.164  -7.704 -19.442  1.00  0.00     0.015 C 
ATOM     13  C   UNL     1      30.570  -5.323 -19.874  1.00  0.00     0.015 C 
ATOM     14  C   UNL     1      32.224  -7.330 -18.713  1.00  0.00     0.079 C 
ATOM     15  C   UNL     1      31.621  -4.908 -19.153  1.00  0.00     0.079 C 
ATOM     16  C   UNL     1      32.554  -5.883 -18.499  1.00  0.00     0.199 C 
ATOM     17  N   UNL     1      33.581  -5.500 -17.794  1.00  0.00    -0.235 N 
ATOM     18  C   UNL     1      34.451  -6.465 -17.050  1.00  0.00     0.433 C 
ATOM     19  C   UNL     1      33.979  -4.062 -17.669  1.00  0.00     0.433 C 
BRANCH  10  20
ATOM     20  C   UNL     1      28.278  -6.149 -21.450  1.00  0.00    -0.017 A 
ATOM     21  C   UNL     1      27.181  -5.638 -20.741  1.00  0.00     0.009 A 
ATOM     22  C   UNL     1      28.511  -5.718 -22.762  1.00  0.00     0.009 A 
ATOM     23  C   UNL     1      26.337  -4.699 -21.336  1.00  0.00     0.001 A 
ATOM     24  C   UNL     1      27.665  -4.780 -23.354  1.00  0.00     0.001 A 
ATOM     25  C   UNL     1      26.580  -4.270 -22.641  1.00  0.00     0.000 A 
ENDBRANCH  10  20
ENDBRANCH   4  10
TORSDOF 3
ENDMDL
MODEL 7
REMARK VINA RESULT:    -5.926      2.768      6.617
REMARK INTER + INTRA:          -8.014
REMARK INTER:                  -6.925
REMARK INTRA:                  -1.089
REMARK UNBOUND:                -1.048
REMARK SMILES CN(C)c1ccc(C(=C2C=CC(=[N+](C)C)C=C2)c2ccccc2)cc1
REMARK SMILES IDX 4 1 5 2 6 3 7 4 24 5 25 6 2 7 1 8 3 9 8 10 9 11 10 12 17 13
REMARK SMILES IDX 11 14 16 15 12 16 13 17 14 18 15 19 18 20 19 21 23 22 20 23
REMARK SMILES IDX 22 24 21 25
REMARK H PARENT
ROOT
ATOM      1  C   UNL     1      28.155 -11.595 -21.587  1.00  0.00     0.036 A 
ATOM      2  C   UNL     1      27.738 -10.795 -20.507  1.00  0.00     0.026 A 
ATOM      3  C   UNL     1      28.238  -9.502 -20.292  1.00  0.00     0.011 A 
ATOM      4  C   UNL     1      29.194  -8.965 -21.152  1.00  0.00    -0.017 A 
ATOM      5  C   UNL     1      29.632  -9.732 -22.230  1.00  0.00     0.011 A 
ATOM      6  C   UNL     1      29.123 -11.024 -22.433  1.00  0.00     0.026 A 
ENDROOT
BRANCH   1   7
ATOM      7  N   UNL     1      27.672 -12.895 -21.780  1.00  0.00    -0.378 N 
ATOM      8  C   UNL     1      28.540 -14.028 -21.456  1.00  0.00     0.143 C 
ATOM      9  C   UNL     1      26.713 -13.138 -22.859  1.00  0.00     0.143 C 
ENDBRANCH   1   7
BRANCH   4  10
ATOM     10  C   UNL     1      29.749  -7.607 -20.916  1.00  0.00    -0.004 C 
ATOM     11  C   UNL     1      31.013  -7.446 -20.422  1.00  0.00    -0.017 C 
ATOM     12  C   UNL     1      31.871  -8.592 -20.109  1.00  0.00     0.015 C 
ATOM     13  C   UNL     1      31.583  -6.118 -20.178  1.00  0.00     0.015 C 
ATOM     14  C   UNL     1      33.113  -8.457 -19.623  1.00  0.00     0.079 C 
ATOM     15  C   UNL     1      32.821  -5.940 -19.695  1.00  0.00     0.079 C 
ATOM     16  C   UNL     1      33.708  -7.104 -19.369  1.00  0.00     0.199 C 
ATOM     17  N   UNL     1      34.914  -6.952 -18.899  1.00  0.00    -0.235 N 
ATOM     18  C   UNL     1      35.762  -8.109 -18.470  1.00  0.00     0.433 C 
ATOM     19  C   UNL     1      35.554  -5.607 -18.747  1.00  0.00     0.433 C 
BRANCH  10  20
ATOM     20  C   UNL     1      28.896  -6.429 -21.228  1.00  0.00    -0.017 A 
ATOM     21  C   UNL     1      28.901  -5.875 -22.515  1.00  0.00     0.009 A 
ATOM     22  C   UNL     1      28.086  -5.860 -20.236  1.00  0.00     0.009 A 
ATOM     23  C   UNL     1      28.095  -4.773 -22.808  1.00  0.00     0.001 A 
ATOM     24  C   UNL     1      27.282  -4.758 -20.533  1.00  0.00     0.001 A 
ATOM     25  C   UNL     1      27.286  -4.217 -21.818  1.00  0.00     0.000 A 
ENDBRANCH  10  20
ENDBRANCH   4  10
TORSDOF 3
ENDMDL
MODEL 8
REMARK VINA RESULT:    -5.769      2.659      5.560
REMARK INTER + INTRA:          -7.829
REMARK INTER:                  -6.630
REMARK INTRA:                  -1.199
REMARK UNBOUND:                -1.048
REMARK SMILES CN(C)c1ccc(C(=C2C=CC(=[N+](C)C)C=C2)c2ccccc2)cc1
REMARK SMILES IDX 4 1 5 2 6 3 7 4 24 5 25 6 2 7 1 8 3 9 8 10 9 11 10 12 17 13
REMARK SMILES IDX 11 14 16 15 12 16 13 17 14 18 15 19 18 20 19 21 23 22 20 23
REMARK SMILES IDX 22 24 21 25
REMARK H PARENT
ROOT
ATOM      1  C   UNL     1      26.928  -7.968 -19.489  1.00  0.00     0.036 A 
ATOM      2  C   UNL     1      27.237  -6.596 -19.451  1.00  0.00     0.026 A 
ATOM      3  C   UNL     1      27.979  -5.964 -20.459  1.00  0.00     0.011 A 
ATOM      4  C   UNL     1      28.454  -6.694 -21.546  1.00  0.00    -0.017 A 
ATOM      5  C   UNL     1      28.169  -8.057 -21.614  1.00  0.00     0.011 A 
ATOM      6  C   UNL     1      27.426  -8.676 -20.598  1.00  0.00     0.026 A 
ENDROOT
BRANCH   1   7
ATOM      7  N   UNL     1      26.210  -8.598 -18.466  1.00  0.00    -0.378 N 
ATOM      8  C   UNL     1      26.893  -8.906 -17.208  1.00  0.00     0.143 C 
ATOM      9  C   UNL     1      25.130  -9.519 -18.824  1.00  0.00     0.143 C 
ENDBRANCH   1   7
BRANCH   4  10
ATOM     10  C   UNL     1      29.264  -6.037 -22.605  1.00  0.00    -0.004 C 
ATOM     11  C   UNL     1      28.666  -5.517 -23.719  1.00  0.00    -0.017 C 
ATOM     12  C   UNL     1      27.215  -5.580 -23.917  1.00  0.00     0.015 C 
ATOM     13  C   UNL     1      29.441  -4.866 -24.779  1.00  0.00     0.015 C 
ATOM     14  C   UNL     1      26.609  -5.077 -25.001  1.00  0.00     0.079 C 
ATOM     15  C   UNL     1      28.873  -4.349 -25.878  1.00  0.00     0.079 C 
ATOM     16  C   UNL     1      27.389  -4.409 -26.092  1.00  0.00     0.199 C 
ATOM     17  N   UNL     1      26.819  -3.912 -27.153  1.00  0.00    -0.235 N 
ATOM     18  C   UNL     1      25.354  -4.066 -27.424  1.00  0.00     0.433 C 
ATOM     19  C   UNL     1      27.578  -3.147 -28.193  1.00  0.00     0.433 C 
BRANCH  10  20
ATOM     20  C   UNL     1      30.738  -5.960 -22.425  1.00  0.00    -0.017 A 
ATOM     21  C   UNL     1      31.311  -4.871 -21.754  1.00  0.00     0.009 A 
ATOM     22  C   UNL     1      31.566  -6.972 -22.928  1.00  0.00     0.009 A 
ATOM     23  C   UNL     1      32.695  -4.803 -21.580  1.00  0.00     0.001 A 
ATOM     24  C   UNL     1      32.948  -6.900 -22.753  1.00  0.00     0.001 A 
ATOM     25  C   UNL     1      33.511  -5.818 -22.078  1.00  0.00     0.000 A 
ENDBRANCH  10  20
ENDBRANCH   4  10
TORSDOF 3
ENDMDL
MODEL 9
REMARK VINA RESULT:    -5.687      2.534      5.592
REMARK INTER + INTRA:          -7.733
REMARK INTER:                  -6.543
REMARK INTRA:                  -1.190
REMARK UNBOUND:                -1.048
REMARK SMILES CN(C)c1ccc(C(=C2C=CC(=[N+](C)C)C=C2)c2ccccc2)cc1
REMARK SMILES IDX 4 1 5 2 6 3 7 4 24 5 25 6 2 7 1 8 3 9 8 10 9 11 10 12 17 13
REMARK SMILES IDX 11 14 16 15 12 16 13 17 14 18 15 19 18 20 19 21 23 22 20 23
REMARK SMILES IDX 22 24 21 25
REMARK H PARENT
ROOT
ATOM      1  C   UNL     1      34.860  -7.588 -18.951  1.00  0.00     0.036 A 
ATOM      2  C   UNL     1      34.214  -6.345 -18.812  1.00  0.00     0.026 A 
ATOM      3  C   UNL     1      33.113  -5.977 -19.600  1.00  0.00     0.011 A 
ATOM      4  C   UNL     1      32.625  -6.845 -20.575  1.00  0.00    -0.017 A 
ATOM      5  C   UNL     1      33.244  -8.082 -20.742  1.00  0.00     0.011 A 
ATOM      6  C   UNL     1      34.344  -8.437 -19.947  1.00  0.00     0.026 A 
ENDROOT
BRANCH   1   7
ATOM      7  N   UNL     1      35.975  -7.937 -18.180  1.00  0.00    -0.378 N 
ATOM      8  C   UNL     1      37.233  -7.219 -18.389  1.00  0.00     0.143 C 
ATOM      9  C   UNL     1      36.120  -9.325 -17.738  1.00  0.00     0.143 C 
ENDBRANCH   1   7
BRANCH   4  10
ATOM     10  C   UNL     1      31.476  -6.451 -21.433  1.00  0.00    -0.004 C 
ATOM     11  C   UNL     1      30.203  -6.833 -21.112  1.00  0.00    -0.017 C 
ATOM     12  C   UNL     1      29.916  -7.636 -19.920  1.00  0.00     0.015 C 
ATOM     13  C   UNL     1      29.054  -6.460 -21.941  1.00  0.00     0.015 C 
ATOM     14  C   UNL     1      28.676  -8.021 -19.588  1.00  0.00     0.079 C 
ATOM     15  C   UNL     1      27.798  -6.824 -21.643  1.00  0.00     0.079 C 
ATOM     16  C   UNL     1      27.491  -7.647 -20.427  1.00  0.00     0.199 C 
ATOM     17  N   UNL     1      26.278  -8.011 -20.120  1.00  0.00    -0.235 N 
ATOM     18  C   UNL     1      25.978  -8.922 -18.971  1.00  0.00     0.433 C 
ATOM     19  C   UNL     1      25.080  -7.549 -20.891  1.00  0.00     0.433 C 
BRANCH  10  20
ATOM     20  C   UNL     1      31.744  -5.635 -22.647  1.00  0.00    -0.017 A 
ATOM     21  C   UNL     1      31.973  -6.259 -23.881  1.00  0.00     0.009 A 
ATOM     22  C   UNL     1      31.775  -4.237 -22.566  1.00  0.00     0.009 A 
ATOM     23  C   UNL     1      32.218  -5.491 -25.020  1.00  0.00     0.001 A 
ATOM     24  C   UNL     1      32.021  -3.473 -23.707  1.00  0.00     0.001 A 
ATOM     25  C   UNL     1      32.241  -4.100 -24.933  1.00  0.00     0.000 A 
ENDBRANCH  10  20
ENDBRANCH   4  10
TORSDOF 3
ENDMDL
MODEL 10
REMARK VINA RESULT:    -5.656      3.154      4.693
REMARK INTER + INTRA:          -7.696
REMARK INTER:                  -6.652
REMARK INTRA:                  -1.044
REMARK UNBOUND:                -1.048
REMARK SMILES CN(C)c1ccc(C(=C2C=CC(=[N+](C)C)C=C2)c2ccccc2)cc1
REMARK SMILES IDX 4 1 5 2 6 3 7 4 24 5 25 6 2 7 1 8 3 9 8 10 9 11 10 12 17 13
REMARK SMILES IDX 11 14 16 15 12 16 13 17 14 18 15 19 18 20 19 21 23 22 20 23
REMARK SMILES IDX 22 24 21 25
REMARK H PARENT
ROOT
ATOM      1  C   UNL     1      28.360 -11.443 -21.668  1.00  0.00     0.036 A 
ATOM      2  C   UNL     1      29.660 -10.943 -21.466  1.00  0.00     0.026 A 
ATOM      3  C   UNL     1      29.960  -9.575 -21.543  1.00  0.00     0.011 A 
ATOM      4  C   UNL     1      28.960  -8.651 -21.842  1.00  0.00    -0.017 A 
ATOM      5  C   UNL     1      27.662  -9.113 -22.051  1.00  0.00     0.011 A 
ATOM      6  C   UNL     1      27.377 -10.484 -21.971  1.00  0.00     0.026 A 
ENDROOT
BRANCH   1   7
ATOM      7  N   UNL     1      28.073 -12.812 -21.616  1.00  0.00    -0.378 N 
ATOM      8  C   UNL     1      29.160 -13.753 -21.338  1.00  0.00     0.143 C 
ATOM      9  C   UNL     1      26.999 -13.340 -22.458  1.00  0.00     0.143 C 
ENDBRANCH   1   7
BRANCH   4  10
ATOM     10  C   UNL     1      29.275  -7.202 -21.952  1.00  0.00    -0.004 C 
ATOM     11  C   UNL     1      29.239  -6.571 -23.163  1.00  0.00    -0.017 C 
ATOM     12  C   UNL     1      28.889  -7.284 -24.395  1.00  0.00     0.015 C 
ATOM     13  C   UNL     1      29.547  -5.144 -23.300  1.00  0.00     0.015 C 
ATOM     14  C   UNL     1      28.848  -6.684 -25.593  1.00  0.00     0.079 C 
ATOM     15  C   UNL     1      29.515  -4.507 -24.479  1.00  0.00     0.079 C 
ATOM     16  C   UNL     1      29.161  -5.226 -25.747  1.00  0.00     0.199 C 
ATOM     17  N   UNL     1      29.125  -4.624 -26.902  1.00  0.00    -0.235 N 
ATOM     18  C   UNL     1      28.879  -5.358 -28.183  1.00  0.00     0.433 C 
ATOM     19  C   UNL     1      29.328  -3.147 -27.047  1.00  0.00     0.433 C 
BRANCH  10  20
ATOM     20  C   UNL     1      29.631  -6.458 -20.714  1.00  0.00    -0.017 A 
ATOM     21  C   UNL     1      30.975  -6.238 -20.385  1.00  0.00     0.009 A 
ATOM     22  C   UNL     1      28.626  -5.976 -19.866  1.00  0.00     0.009 A 
ATOM     23  C   UNL     1      31.308  -5.534 -19.226  1.00  0.00     0.001 A 
ATOM     24  C   UNL     1      28.962  -5.273 -18.708  1.00  0.00     0.001 A 
ATOM     25  C   UNL     1      30.302  -5.051 -18.390  1.00  0.00     0.000 A 
ENDBRANCH  10  20
ENDBRANCH   4  10
TORSDOF 3
ENDMDL
MODEL 11
REMARK VINA RESULT:    -5.583      2.826      6.203
REMARK INTER + INTRA:          -7.610
REMARK INTER:                  -6.496
REMARK INTRA:                  -1.114
REMARK UNBOUND:                -1.048
REMARK SMILES CN(C)c1ccc(C(=C2C=CC(=[N+](C)C)C=C2)c2ccccc2)cc1
REMARK SMILES IDX 4 1 5 2 6 3 7 4 24 5 25 6 2 7 1 8 3 9 8 10 9 11 10 12 17 13
REMARK SMILES IDX 11 14 16 15 12 16 13 17 14 18 15 19 18 20 19 21 23 22 20 23
REMARK SMILES IDX 22 24 21 25
REMARK H PARENT
ROOT
ATOM      1  C   UNL     1      28.433 -11.260 -21.531  1.00  0.00     0.036 A 
ATOM      2  C   UNL     1      29.222 -10.657 -22.529  1.00  0.00     0.026 A 
ATOM      3  C   UNL     1      29.655  -9.326 -22.443  1.00  0.00     0.011 A 
ATOM      4  C   UNL     1      29.297  -8.538 -21.350  1.00  0.00    -0.017 A 
ATOM      5  C   UNL     1      28.513  -9.103 -20.345  1.00  0.00     0.011 A 
ATOM      6  C   UNL     1      28.087 -10.436 -20.444  1.00  0.00     0.026 A 
ENDROOT
BRANCH   1   7
ATOM      7  N   UNL     1      27.982 -12.581 -21.636  1.00  0.00    -0.378 N 
ATOM      8  C   UNL     1      28.926 -13.672 -21.390  1.00  0.00     0.143 C 
ATOM      9  C   UNL     1      26.916 -12.889 -22.590  1.00  0.00     0.143 C 
ENDBRANCH   1   7
BRANCH   4  10
ATOM     10  C   UNL     1      29.729  -7.119 -21.265  1.00  0.00    -0.004 C 
ATOM     11  C   UNL     1      31.016  -6.799 -20.930  1.00  0.00    -0.017 C 
ATOM     12  C   UNL     1      32.017  -7.831 -20.644  1.00  0.00     0.015 C 
ATOM     13  C   UNL     1      31.466  -5.408 -20.837  1.00  0.00     0.015 C 
ATOM     14  C   UNL     1      33.282  -7.540 -20.313  1.00  0.00     0.079 C 
ATOM     15  C   UNL     1      32.723  -5.075 -20.510  1.00  0.00     0.079 C 
ATOM     16  C   UNL     1      33.757  -6.121 -20.215  1.00  0.00     0.199 C 
ATOM     17  N   UNL     1      34.983  -5.818 -19.895  1.00  0.00    -0.235 N 
ATOM     18  C   UNL     1      35.989  -6.852 -19.493  1.00  0.00     0.433 C 
ATOM     19  C   UNL     1      35.492  -4.410 -19.903  1.00  0.00     0.433 C 
BRANCH  10  20
ATOM     20  C   UNL     1      28.730  -6.055 -21.552  1.00  0.00    -0.017 A 
ATOM     21  C   UNL     1      27.979  -5.492 -20.511  1.00  0.00     0.009 A 
ATOM     22  C   UNL     1      28.528  -5.611 -22.865  1.00  0.00     0.009 A 
ATOM     23  C   UNL     1      27.046  -4.490 -20.781  1.00  0.00     0.001 A 
ATOM     24  C   UNL     1      27.594  -4.609 -23.132  1.00  0.00     0.001 A 
ATOM     25  C   UNL     1      26.855  -4.048 -22.090  1.00  0.00     0.000 A 
ENDBRANCH  10  20
ENDBRANCH   4  10
TORSDOF 3
ENDMDL
MODEL 12
REMARK VINA RESULT:    -5.419      3.085      7.816
REMARK INTER + INTRA:          -7.417
REMARK INTER:                  -6.354
REMARK INTRA:                  -1.063
REMARK UNBOUND:                -1.048
REMARK SMILES CN(C)c1ccc(C(=C2C=CC(=[N+](C)C)C=C2)c2ccccc2)cc1
REMARK SMILES IDX 4 1 5 2 6 3 7 4 24 5 25 6 2 7 1 8 3 9 8 10 9 11 10 12 17 13
REMARK SMILES IDX 11 14 16 15 12 16 13 17 14 18 15 19 18 20 19 21 23 22 20 23
REMARK SMILES IDX 22 24 21 25
REMARK H PARENT
ROOT
ATOM      1  C   UNL     1      28.745  -9.147 -20.604  1.00  0.00     0.036 A 
ATOM      2  C   UNL     1      29.983  -9.585 -21.110  1.00  0.00     0.026 A 
ATOM      3  C   UNL     1      31.057  -8.711 -21.330  1.00  0.00     0.011 A 
ATOM      4  C   UNL     1      30.923  -7.350 -21.061  1.00  0.00    -0.017 A 
ATOM      5  C   UNL     1      29.708  -6.882 -20.563  1.00  0.00     0.011 A 
ATOM      6  C   UNL     1      28.642  -7.768 -20.348  1.00  0.00     0.026 A 
ENDROOT
BRANCH   1   7
ATOM      7  N   UNL     1      27.668 -10.022 -20.413  1.00  0.00    -0.378 N 
ATOM      8  C   UNL     1      26.862  -9.896 -19.197  1.00  0.00     0.143 C 
ATOM      9  C   UNL     1      27.752 -11.376 -20.963  1.00  0.00     0.143 C 
ENDBRANCH   1   7
BRANCH   4  10
ATOM     10  C   UNL     1      32.048  -6.412 -21.317  1.00  0.00    -0.004 C 
ATOM     11  C   UNL     1      33.088  -6.314 -20.436  1.00  0.00    -0.017 C 
ATOM     12  C   UNL     1      33.143  -7.121 -19.214  1.00  0.00     0.015 C 
ATOM     13  C   UNL     1      34.208  -5.397 -20.664  1.00  0.00     0.015 C 
ATOM     14  C   UNL     1      34.153  -7.040 -18.337  1.00  0.00     0.079 C 
ATOM     15  C   UNL     1      35.238  -5.287 -19.812  1.00  0.00     0.079 C 
ATOM     16  C   UNL     1      35.305  -6.106 -18.557  1.00  0.00     0.199 C 
ATOM     17  N   UNL     1      36.297  -6.013 -17.717  1.00  0.00    -0.235 N 
ATOM     18  C   UNL     1      36.316  -6.746 -16.412  1.00  0.00     0.433 C 
ATOM     19  C   UNL     1      37.502  -5.165 -17.985  1.00  0.00     0.433 C 
BRANCH  10  20
ATOM     20  C   UNL     1      32.013  -5.584 -22.552  1.00  0.00    -0.017 A 
ATOM     21  C   UNL     1      32.237  -6.174 -23.804  1.00  0.00     0.009 A 
ATOM     22  C   UNL     1      31.761  -4.209 -22.474  1.00  0.00     0.009 A 
ATOM     23  C   UNL     1      32.199  -5.397 -24.963  1.00  0.00     0.001 A 
ATOM     24  C   UNL     1      31.724  -3.435 -23.635  1.00  0.00     0.001 A 
ATOM     25  C   UNL     1      31.941  -4.029 -24.877  1.00  0.00     0.000 A 
ENDBRANCH  10  20
ENDBRANCH   4  10
TORSDOF 3
ENDMDL
MODEL 13
REMARK VINA RESULT:    -5.205     27.253     30.202
REMARK INTER + INTRA:          -7.167
REMARK INTER:                  -6.419
REMARK INTRA:                  -0.748
REMARK UNBOUND:                -1.048
REMARK SMILES CN(C)c1ccc(C(=C2C=CC(=[N+](C)C)C=C2)c2ccccc2)cc1
REMARK SMILES IDX 4 1 5 2 6 3 7 4 24 5 25 6 2 7 1 8 3 9 8 10 9 11 10 12 17 13
REMARK SMILES IDX 11 14 16 15 12 16 13 17 14 18 15 19 18 20 19 21 23 22 20 23
REMARK SMILES IDX 22 24 21 25
REMARK H PARENT
ROOT
ATOM      1  C   UNL     1       9.223 -22.422 -31.907  1.00  0.00     0.036 A 
ATOM      2  C   UNL     1      10.214 -23.189 -32.549  1.00  0.00     0.026 A 
ATOM      3  C   UNL     1      10.262 -24.587 -32.454  1.00  0.00     0.011 A 
ATOM      4  C   UNL     1       9.318 -25.274 -31.693  1.00  0.00    -0.017 A 
ATOM      5  C   UNL     1       8.325 -24.545 -31.040  1.00  0.00     0.011 A 
ATOM      6  C   UNL     1       8.288 -23.147 -31.144  1.00  0.00     0.026 A 
ENDROOT
BRANCH   1   7
ATOM      7  N   UNL     1       9.196 -21.025 -31.984  1.00  0.00    -0.378 N 
ATOM      8  C   UNL     1      10.049 -20.354 -32.968  1.00  0.00     0.143 C 
ATOM      9  C   UNL     1       8.932 -20.256 -30.767  1.00  0.00     0.143 C 
ENDBRANCH   1   7
BRANCH   4  10
ATOM     10  C   UNL     1       9.379 -26.753 -31.565  1.00  0.00    -0.004 C 
ATOM     11  C   UNL     1       9.362 -27.551 -32.675  1.00  0.00    -0.017 C 
ATOM     12  C   UNL     1       9.287 -26.990 -34.027  1.00  0.00     0.015 C 
ATOM     13  C   UNL     1       9.419 -29.012 -32.577  1.00  0.00     0.015 C 
ATOM     14  C   UNL     1       9.269 -27.753 -35.128  1.00  0.00     0.079 C 
ATOM     15  C   UNL     1       9.405 -29.811 -33.653  1.00  0.00     0.079 C 
ATOM     16  C   UNL     1       9.326 -29.249 -35.042  1.00  0.00     0.199 C 
ATOM     17  N   UNL     1       9.311 -30.009 -36.101  1.00  0.00    -0.235 N 
ATOM     18  C   UNL     1       9.123 -29.460 -37.481  1.00  0.00     0.433 C 
ATOM     19  C   UNL     1       9.479 -31.495 -36.028  1.00  0.00     0.433 C 
BRANCH  10  20
ATOM     20  C   UNL     1       9.457 -27.345 -30.202  1.00  0.00    -0.017 A 
ATOM     21  C   UNL     1       8.285 -27.624 -29.486  1.00  0.00     0.009 A 
ATOM     22  C   UNL     1      10.701 -27.622 -29.623  1.00  0.00     0.009 A 
ATOM     23  C   UNL     1       8.360 -28.185 -28.210  1.00  0.00     0.001 A 
ATOM     24  C   UNL     1      10.772 -28.182 -28.346  1.00  0.00     0.001 A 
ATOM     25  C   UNL     1       9.602 -28.465 -27.642  1.00  0.00     0.000 A 
ENDBRANCH  10  20
ENDBRANCH   4  10
TORSDOF 3
ENDMDL
MODEL 14
REMARK VINA RESULT:    -4.817     11.482     14.568
REMARK INTER + INTRA:          -6.710
REMARK INTER:                  -6.138
REMARK INTRA:                  -0.572
REMARK UNBOUND:                -1.048
REMARK SMILES CN(C)c1ccc(C(=C2C=CC(=[N+](C)C)C=C2)c2ccccc2)cc1
REMARK SMILES IDX 4 1 5 2 6 3 7 4 24 5 25 6 2 7 1 8 3 9 8 10 9 11 10 12 17 13
REMARK SMILES IDX 11 14 16 15 12 16 13 17 14 18 15 19 18 20 19 21 23 22 20 23
REMARK SMILES IDX 22 24 21 25
REMARK H PARENT
ROOT
ATOM      1  C   UNL     1      22.458  -6.471 -30.889  1.00  0.00     0.036 A 
ATOM      2  C   UNL     1      21.613  -5.784 -29.998  1.00  0.00     0.026 A 
ATOM      3  C   UNL     1      20.287  -6.176 -29.764  1.00  0.00     0.011 A 
ATOM      4  C   UNL     1      19.750  -7.275 -30.434  1.00  0.00    -0.017 A 
ATOM      5  C   UNL     1      20.558  -7.976 -31.327  1.00  0.00     0.011 A 
ATOM      6  C   UNL     1      21.883  -7.571 -31.551  1.00  0.00     0.026 A 
ENDROOT
BRANCH   1   7
ATOM      7  N   UNL     1      23.772  -6.057 -31.138  1.00  0.00    -0.378 N 
ATOM      8  C   UNL     1      24.325  -4.949 -30.356  1.00  0.00     0.143 C 
ATOM      9  C   UNL     1      24.308  -6.186 -32.493  1.00  0.00     0.143 C 
ENDBRANCH   1   7
BRANCH   4  10
ATOM     10  C   UNL     1      18.338  -7.681 -30.212  1.00  0.00    -0.004 C 
ATOM     11  C   UNL     1      17.309  -6.901 -30.661  1.00  0.00    -0.017 C 
ATOM     12  C   UNL     1      17.549  -5.644 -31.375  1.00  0.00     0.015 C 
ATOM     13  C   UNL     1      15.908  -7.277 -30.454  1.00  0.00     0.015 C 
ATOM     14  C   UNL     1      16.555  -4.864 -31.823  1.00  0.00     0.079 C 
ATOM     15  C   UNL     1      14.885  -6.526 -30.888  1.00  0.00     0.079 C 
ATOM     16  C   UNL     1      15.117  -5.237 -31.618  1.00  0.00     0.199 C 
ATOM     17  N   UNL     1      14.137  -4.493 -32.047  1.00  0.00    -0.235 N 
ATOM     18  C   UNL     1      14.361  -3.154 -32.679  1.00  0.00     0.433 C 
ATOM     19  C   UNL     1      12.703  -4.913 -31.944  1.00  0.00     0.433 C 
BRANCH  10  20
ATOM     20  C   UNL     1      18.071  -8.954 -29.491  1.00  0.00    -0.017 A 
ATOM     21  C   UNL     1      17.134  -9.867 -29.993  1.00  0.00     0.009 A 
ATOM     22  C   UNL     1      18.751  -9.249 -28.303  1.00  0.00     0.009 A 
ATOM     23  C   UNL     1      16.889 -11.064 -29.319  1.00  0.00     0.001 A 
ATOM     24  C   UNL     1      18.503 -10.447 -27.630  1.00  0.00     0.001 A 
ATOM     25  C   UNL     1      17.574 -11.354 -28.140  1.00  0.00     0.000 A 
ENDBRANCH  10  20
ENDBRANCH   4  10
TORSDOF 3
ENDMDL
MODEL 15
REMARK VINA RESULT:    -4.743     12.983     17.258
REMARK INTER + INTRA:          -6.623
REMARK INTER:                  -6.156
REMARK INTRA:                  -0.466
REMARK UNBOUND:                -1.048
REMARK SMILES CN(C)c1ccc(C(=C2C=CC(=[N+](C)C)C=C2)c2ccccc2)cc1
REMARK SMILES IDX 4 1 5 2 6 3 7 4 24 5 25 6 2 7 1 8 3 9 8 10 9 11 10 12 17 13
REMARK SMILES IDX 11 14 16 15 12 16 13 17 14 18 15 19 18 20 19 21 23 22 20 23
REMARK SMILES IDX 22 24 21 25
REMARK H PARENT
ROOT
ATOM      1  C   UNL     1      12.563  -8.087 -31.961  1.00  0.00     0.036 A 
ATOM      2  C   UNL     1      12.881  -7.867 -30.608  1.00  0.00     0.026 A 
ATOM      3  C   UNL     1      14.190  -7.974 -30.116  1.00  0.00     0.011 A 
ATOM      4  C   UNL     1      15.236  -8.321 -30.969  1.00  0.00    -0.017 A 
ATOM      5  C   UNL     1      14.956  -8.550 -32.315  1.00  0.00     0.011 A 
ATOM      6  C   UNL     1      13.642  -8.440 -32.793  1.00  0.00     0.026 A 
ENDROOT
BRANCH   1   7
ATOM      7  N   UNL     1      11.250  -8.006 -32.440  1.00  0.00    -0.378 N 
ATOM      8  C   UNL     1      10.150  -7.932 -31.477  1.00  0.00     0.143 C 
ATOM      9  C   UNL     1      10.920  -8.656 -33.709  1.00  0.00     0.143 C 
ENDBRANCH   1   7
BRANCH   4  10
ATOM     10  C   UNL     1      16.622  -8.463 -30.450  1.00  0.00    -0.004 C 
ATOM     11  C   UNL     1      17.541  -7.468 -30.636  1.00  0.00    -0.017 C 
ATOM     12  C   UNL     1      17.206  -6.230 -31.345  1.00  0.00     0.015 C 
ATOM     13  C   UNL     1      18.914  -7.583 -30.136  1.00  0.00     0.015 C 
ATOM     14  C   UNL     1      18.091  -5.243 -31.538  1.00  0.00     0.079 C 
ATOM     15  C   UNL     1      19.829  -6.618 -30.308  1.00  0.00     0.079 C 
ATOM     16  C   UNL     1      19.499  -5.347 -31.033  1.00  0.00     0.199 C 
ATOM     17  N   UNL     1      20.375  -4.398 -31.210  1.00  0.00    -0.235 N 
ATOM     18  C   UNL     1      20.083  -3.177 -32.026  1.00  0.00     0.433 C 
ATOM     19  C   UNL     1      21.747  -4.448 -30.613  1.00  0.00     0.433 C 
BRANCH  10  20
ATOM     20  C   UNL     1      16.984  -9.710 -29.726  1.00  0.00    -0.017 A 
ATOM     21  C   UNL     1      16.482 -10.946 -30.154  1.00  0.00     0.009 A 
ATOM     22  C   UNL     1      17.827  -9.659 -28.608  1.00  0.00     0.009 A 
ATOM     23  C   UNL     1      16.828 -12.117 -29.478  1.00  0.00     0.001 A 
ATOM     24  C   UNL     1      18.170 -10.831 -27.933  1.00  0.00     0.001 A 
ATOM     25  C   UNL     1      17.672 -12.059 -28.370  1.00  0.00     0.000 A 
ENDBRANCH  10  20
ENDBRANCH   4  10
TORSDOF 3
ENDMDL
MODEL 16
REMARK VINA RESULT:    -4.662      3.038      7.077
REMARK INTER + INTRA:          -6.528
REMARK INTER:                  -5.311
REMARK INTRA:                  -1.217
REMARK UNBOUND:                -1.048
REMARK SMILES CN(C)c1ccc(C(=C2C=CC(=[N+](C)C)C=C2)c2ccccc2)cc1
REMARK SMILES IDX 4 1 5 2 6 3 7 4 24 5 25 6 2 7 1 8 3 9 8 10 9 11 10 12 17 13
REMARK SMILES IDX 11 14 16 15 12 16 13 17 14 18 15 19 18 20 19 21 23 22 20 23
REMARK SMILES IDX 22 24 21 25
REMARK H PARENT
ROOT
ATOM      1  C   UNL     1      28.306  -9.236 -21.741  1.00  0.00     0.036 A 
ATOM      2  C   UNL     1      29.356  -9.319 -22.674  1.00  0.00     0.026 A 
ATOM      3  C   UNL     1      30.122  -8.204 -23.045  1.00  0.00     0.011 A 
ATOM      4  C   UNL     1      29.850  -6.951 -22.500  1.00  0.00    -0.017 A 
ATOM      5  C   UNL     1      28.814  -6.832 -21.575  1.00  0.00     0.011 A 
ATOM      6  C   UNL     1      28.056  -7.956 -21.213  1.00  0.00     0.026 A 
ENDROOT
BRANCH   1   7
ATOM      7  N   UNL     1      27.528 -10.348 -21.395  1.00  0.00    -0.378 N 
ATOM      8  C   UNL     1      26.666 -10.269 -20.214  1.00  0.00     0.143 C 
ATOM      9  C   UNL     1      28.033 -11.686 -21.704  1.00  0.00     0.143 C 
ENDBRANCH   1   7
BRANCH   4  10
ATOM     10  C   UNL     1      30.640  -5.759 -22.908  1.00  0.00    -0.004 C 
ATOM     11  C   UNL     1      31.762  -5.395 -22.218  1.00  0.00    -0.017 C 
ATOM     12  C   UNL     1      32.233  -6.156 -21.057  1.00  0.00     0.015 C 
ATOM     13  C   UNL     1      32.556  -4.224 -22.598  1.00  0.00     0.015 C 
ATOM     14  C   UNL     1      33.330  -5.816 -20.365  1.00  0.00     0.079 C 
ATOM     15  C   UNL     1      33.660  -3.852 -21.934  1.00  0.00     0.079 C 
ATOM     16  C   UNL     1      34.152  -4.620 -20.744  1.00  0.00     0.199 C 
ATOM     17  N   UNL     1      35.222  -4.274 -20.085  1.00  0.00    -0.235 N 
ATOM     18  C   UNL     1      35.657  -4.972 -18.834  1.00  0.00     0.433 C 
ATOM     19  C   UNL     1      36.108  -3.149 -20.523  1.00  0.00     0.433 C 
BRANCH  10  20
ATOM     20  C   UNL     1      30.180  -4.974 -24.084  1.00  0.00    -0.017 A 
ATOM     21  C   UNL     1      29.309  -3.889 -23.912  1.00  0.00     0.009 A 
ATOM     22  C   UNL     1      30.609  -5.314 -25.374  1.00  0.00     0.009 A 
ATOM     23  C   UNL     1      28.883  -3.148 -25.016  1.00  0.00     0.001 A 
ATOM     24  C   UNL     1      30.181  -4.572 -26.475  1.00  0.00     0.001 A 
ATOM     25  C   UNL     1      29.320  -3.489 -26.296  1.00  0.00     0.000 A 
ENDBRANCH  10  20
ENDBRANCH   4  10
TORSDOF 3
ENDMDL
MODEL 17
REMARK VINA RESULT:    -4.656     25.119     27.296
REMARK INTER + INTRA:          -6.521
REMARK INTER:                  -5.936
REMARK INTRA:                  -0.585
REMARK UNBOUND:                -1.048
REMARK SMILES CN(C)c1ccc(C(=C2C=CC(=[N+](C)C)C=C2)c2ccccc2)cc1
REMARK SMILES IDX 4 1 5 2 6 3 7 4 24 5 25 6 2 7 1 8 3 9 8 10 9 11 10 12 17 13
REMARK SMILES IDX 11 14 16 15 12 16 13 17 14 18 15 19 18 20 19 21 23 22 20 23
REMARK SMILES IDX 22 24 21 25
REMARK H PARENT
ROOT
ATOM      1  C   UNL     1      12.385 -15.587 -39.712  1.00  0.00     0.036 A 
ATOM      2  C   UNL     1      11.242 -15.944 -38.973  1.00  0.00     0.026 A 
ATOM      3  C   UNL     1      11.130 -17.174 -38.309  1.00  0.00     0.011 A 
ATOM      4  C   UNL     1      12.165 -18.105 -38.374  1.00  0.00    -0.017 A 
ATOM      5  C   UNL     1      13.311 -17.785 -39.100  1.00  0.00     0.011 A 
ATOM      6  C   UNL     1      13.409 -16.551 -39.760  1.00  0.00     0.026 A 
ENDROOT
BRANCH   1   7
ATOM      7  N   UNL     1      12.479 -14.368 -40.395  1.00  0.00    -0.378 N 
ATOM      8  C   UNL     1      13.667 -14.102 -41.208  1.00  0.00     0.143 C 
ATOM      9  C   UNL     1      11.850 -13.182 -39.812  1.00  0.00     0.143 C 
ENDBRANCH   1   7
BRANCH   4  10
ATOM     10  C   UNL     1      12.043 -19.422 -37.695  1.00  0.00    -0.004 C 
ATOM     11  C   UNL     1      11.561 -19.507 -36.418  1.00  0.00    -0.017 C 
ATOM     12  C   UNL     1      11.145 -18.318 -35.670  1.00  0.00     0.015 C 
ATOM     13  C   UNL     1      11.433 -20.792 -35.726  1.00  0.00     0.015 C 
ATOM     14  C   UNL     1      10.671 -18.379 -34.418  1.00  0.00     0.079 C 
ATOM     15  C   UNL     1      10.962 -20.896 -34.475  1.00  0.00     0.079 C 
ATOM     16  C   UNL     1      10.534 -19.687 -33.698  1.00  0.00     0.199 C 
ATOM     17  N   UNL     1      10.074 -19.767 -32.481  1.00  0.00    -0.235 N 
ATOM     18  C   UNL     1       9.749 -18.556 -31.663  1.00  0.00     0.433 C 
ATOM     19  C   UNL     1       9.832 -21.077 -31.797  1.00  0.00     0.433 C 
BRANCH  10  20
ATOM     20  C   UNL     1      12.458 -20.643 -38.436  1.00  0.00    -0.017 A 
ATOM     21  C   UNL     1      13.748 -21.166 -38.270  1.00  0.00     0.009 A 
ATOM     22  C   UNL     1      11.565 -21.278 -39.309  1.00  0.00     0.009 A 
ATOM     23  C   UNL     1      14.133 -22.315 -38.961  1.00  0.00     0.001 A 
ATOM     24  C   UNL     1      11.954 -22.426 -40.000  1.00  0.00     0.001 A 
ATOM     25  C   UNL     1      13.237 -22.945 -39.824  1.00  0.00     0.000 A 
ENDBRANCH  10  20
ENDBRANCH   4  10
TORSDOF 3
ENDMDL
MODEL 18
REMARK VINA RESULT:    -4.562     12.605     16.381
REMARK INTER + INTRA:          -6.410
REMARK INTER:                  -5.877
REMARK INTRA:                  -0.533
REMARK UNBOUND:                -1.048
REMARK SMILES CN(C)c1ccc(C(=C2C=CC(=[N+](C)C)C=C2)c2ccccc2)cc1
REMARK SMILES IDX 4 1 5 2 6 3 7 4 24 5 25 6 2 7 1 8 3 9 8 10 9 11 10 12 17 13
REMARK SMILES IDX 11 14 16 15 12 16 13 17 14 18 15 19 18 20 19 21 23 22 20 23
REMARK SMILES IDX 22 24 21 25
REMARK H PARENT
ROOT
ATOM      1  C   UNL     1      14.133  -4.831 -31.310  1.00  0.00     0.036 A 
ATOM      2  C   UNL     1      14.516  -5.883 -32.163  1.00  0.00     0.026 A 
ATOM      3  C   UNL     1      15.653  -6.669 -31.924  1.00  0.00     0.011 A 
ATOM      4  C   UNL     1      16.463  -6.417 -30.819  1.00  0.00    -0.017 A 
ATOM      5  C   UNL     1      16.116  -5.379 -29.956  1.00  0.00     0.011 A 
ATOM      6  C   UNL     1      14.976  -4.601 -30.207  1.00  0.00     0.026 A 
ENDROOT
BRANCH   1   7
ATOM      7  N   UNL     1      13.012  -4.033 -31.569  1.00  0.00    -0.378 N 
ATOM      8  C   UNL     1      11.992  -3.887 -30.529  1.00  0.00     0.143 C 
ATOM      9  C   UNL     1      12.514  -3.941 -32.942  1.00  0.00     0.143 C 
ENDBRANCH   1   7
BRANCH   4  10
ATOM     10  C   UNL     1      17.685  -7.228 -30.574  1.00  0.00    -0.004 C 
ATOM     11  C   UNL     1      18.914  -6.770 -30.958  1.00  0.00    -0.017 C 
ATOM     12  C   UNL     1      19.083  -5.473 -31.619  1.00  0.00     0.015 C 
ATOM     13  C   UNL     1      20.134  -7.550 -30.730  1.00  0.00     0.015 C 
ATOM     14  C   UNL     1      20.279  -5.006 -32.004  1.00  0.00     0.079 C 
ATOM     15  C   UNL     1      21.348  -7.118 -31.098  1.00  0.00     0.079 C 
ATOM     16  C   UNL     1      21.534  -5.794 -31.777  1.00  0.00     0.199 C 
ATOM     17  N   UNL     1      22.706  -5.357 -32.143  1.00  0.00    -0.235 N 
ATOM     18  C   UNL     1      22.885  -4.087 -32.917  1.00  0.00     0.433 C 
ATOM     19  C   UNL     1      23.974  -6.086 -31.821  1.00  0.00     0.433 C 
BRANCH  10  20
ATOM     20  C   UNL     1      17.537  -8.547 -29.903  1.00  0.00    -0.017 A 
ATOM     21  C   UNL     1      18.344  -8.874 -28.805  1.00  0.00     0.009 A 
ATOM     22  C   UNL     1      16.594  -9.473 -30.365  1.00  0.00     0.009 A 
ATOM     23  C   UNL     1      18.200 -10.110 -28.172  1.00  0.00     0.001 A 
ATOM     24  C   UNL     1      16.454 -10.708 -29.731  1.00  0.00     0.001 A 
ATOM     25  C   UNL     1      17.255 -11.025 -28.634  1.00  0.00     0.000 A 
ENDBRANCH  10  20
ENDBRANCH   4  10
TORSDOF 3
ENDMDL
MODEL 19
REMARK VINA RESULT:    -4.489     14.236     18.475
REMARK INTER + INTRA:          -6.324
REMARK INTER:                  -5.217
REMARK INTRA:                  -1.107
REMARK UNBOUND:                -1.048
REMARK SMILES CN(C)c1ccc(C(=C2C=CC(=[N+](C)C)C=C2)c2ccccc2)cc1
REMARK SMILES IDX 4 1 5 2 6 3 7 4 24 5 25 6 2 7 1 8 3 9 8 10 9 11 10 12 17 13
REMARK SMILES IDX 11 14 16 15 12 16 13 17 14 18 15 19 18 20 19 21 23 22 20 23
REMARK SMILES IDX 22 24 21 25
REMARK H PARENT
ROOT
ATOM      1  C   UNL     1      18.222  -6.922 -30.715  1.00  0.00     0.036 A 
ATOM      2  C   UNL     1      17.500  -8.011 -30.192  1.00  0.00     0.026 A 
ATOM      3  C   UNL     1      16.119  -8.159 -30.382  1.00  0.00     0.011 A 
ATOM      4  C   UNL     1      15.401  -7.204 -31.099  1.00  0.00    -0.017 A 
ATOM      5  C   UNL     1      16.084  -6.109 -31.627  1.00  0.00     0.011 A 
ATOM      6  C   UNL     1      17.466  -5.974 -31.429  1.00  0.00     0.026 A 
ENDROOT
BRANCH   1   7
ATOM      7  N   UNL     1      19.596  -6.767 -30.498  1.00  0.00    -0.378 N 
ATOM      8  C   UNL     1      20.193  -5.440 -30.662  1.00  0.00     0.143 C 
ATOM      9  C   UNL     1      20.489  -7.888 -30.796  1.00  0.00     0.143 C 
ENDBRANCH   1   7
BRANCH   4  10
ATOM     10  C   UNL     1      13.932  -7.339 -31.282  1.00  0.00    -0.004 C 
ATOM     11  C   UNL     1      13.423  -8.059 -32.327  1.00  0.00    -0.017 C 
ATOM     12  C   UNL     1      14.291  -8.723 -33.302  1.00  0.00     0.015 C 
ATOM     13  C   UNL     1      11.979  -8.206 -32.531  1.00  0.00     0.015 C 
ATOM     14  C   UNL     1      13.813  -9.432 -34.334  1.00  0.00     0.079 C 
ATOM     15  C   UNL     1      11.460  -8.908 -33.549  1.00  0.00     0.079 C 
ATOM     16  C   UNL     1      12.339  -9.592 -34.555  1.00  0.00     0.199 C 
ATOM     17  N   UNL     1      11.854 -10.278 -35.551  1.00  0.00    -0.235 N 
ATOM     18  C   UNL     1      12.722 -10.870 -36.617  1.00  0.00     0.433 C 
ATOM     19  C   UNL     1      10.387 -10.533 -35.714  1.00  0.00     0.433 C 
BRANCH  10  20
ATOM     20  C   UNL     1      13.031  -6.674 -30.303  1.00  0.00    -0.017 A 
ATOM     21  C   UNL     1      12.823  -5.289 -30.364  1.00  0.00     0.009 A 
ATOM     22  C   UNL     1      12.387  -7.425 -29.311  1.00  0.00     0.009 A 
ATOM     23  C   UNL     1      11.972  -4.667 -29.449  1.00  0.00     0.001 A 
ATOM     24  C   UNL     1      11.538  -6.799 -28.397  1.00  0.00     0.001 A 
ATOM     25  C   UNL     1      11.330  -5.422 -28.468  1.00  0.00     0.000 A 
ENDBRANCH  10  20
ENDBRANCH   4  10
TORSDOF 3
ENDMDL
