MODEL 1
REMARK VINA RESULT:    -6.765      0.000      0.000
REMARK INTER + INTRA:          -8.712
REMARK INTER:                  -7.951
REMARK INTRA:                  -0.761
REMARK UNBOUND:                -0.761
REMARK SMILES CN(C)c1ccc(C(=C2C=CC(=[N+](C)C)C=C2)c2ccccc2)cc1
REMARK SMILES IDX 4 1 5 2 6 3 7 4 24 5 25 6 2 7 1 8 3 9 8 10 9 11 10 12 17 13
REMARK SMILES IDX 11 14 16 15 12 16 13 17 14 18 15 19 18 20 19 21 23 22 20 23
REMARK SMILES IDX 22 24 21 25
REMARK H PARENT
ROOT
ATOM      1  C   UNL     1      27.483 -46.856  54.757  1.00  0.00     0.036 A 
ATOM      2  C   UNL     1      26.274 -47.260  55.355  1.00  0.00     0.026 A 
ATOM      3  C   UNL     1      25.103 -47.473  54.614  1.00  0.00     0.011 A 
ATOM      4  C   UNL     1      25.097 -47.274  53.234  1.00  0.00    -0.017 A 
ATOM      5  C   UNL     1      26.276 -46.870  52.610  1.00  0.00     0.011 A 
ATOM      6  C   UNL     1      27.440 -46.660  53.364  1.00  0.00     0.026 A 
ENDROOT
BRANCH   1   7
ATOM      7  N   UNL     1      28.641 -46.619  55.507  1.00  0.00    -0.378 N 
ATOM      8  C   UNL     1      28.706 -45.423  56.348  1.00  0.00     0.143 C 
ATOM      9  C   UNL     1      29.928 -47.077  54.981  1.00  0.00     0.143 C 
ENDBRANCH   1   7
BRANCH   4  10
ATOM     10  C   UNL     1      23.853 -47.472  52.445  1.00  0.00    -0.004 C 
ATOM     11  C   UNL     1      23.030 -46.417  52.164  1.00  0.00    -0.017 C 
ATOM     12  C   UNL     1      23.335 -45.058  52.620  1.00  0.00     0.015 C 
ATOM     13  C   UNL     1      21.797 -46.585  51.390  1.00  0.00     0.015 C 
ATOM     14  C   UNL     1      22.542 -44.010  52.356  1.00  0.00     0.079 C 
ATOM     15  C   UNL     1      20.978 -45.563  51.103  1.00  0.00     0.079 C 
ATOM     16  C   UNL     1      21.278 -44.167  51.565  1.00  0.00     0.199 C 
ATOM     17  N   UNL     1      20.494 -43.161  51.296  1.00  0.00    -0.235 N 
ATOM     18  C   UNL     1      20.731 -41.789  51.846  1.00  0.00     0.433 C 
ATOM     19  C   UNL     1      19.290 -43.291  50.416  1.00  0.00     0.433 C 
BRANCH  10  20
ATOM     20  C   UNL     1      23.524 -48.842  51.971  1.00  0.00    -0.017 A 
ATOM     21  C   UNL     1      22.286 -49.420  52.283  1.00  0.00     0.009 A 
ATOM     22  C   UNL     1      24.451 -49.568  51.212  1.00  0.00     0.009 A 
ATOM     23  C   UNL     1      21.977 -50.704  51.832  1.00  0.00     0.001 A 
ATOM     24  C   UNL     1      24.139 -50.853  50.763  1.00  0.00     0.001 A 
ATOM     25  C   UNL     1      22.902 -51.418  51.072  1.00  0.00     0.000 A 
ENDBRANCH  10  20
ENDBRANCH   4  10
TORSDOF 3
ENDMDL
MODEL 2
REMARK VINA RESULT:    -6.760      0.121      1.364
REMARK INTER + INTRA:          -8.706
REMARK INTER:                  -7.925
REMARK INTRA:                  -0.781
REMARK UNBOUND:                -0.761
REMARK SMILES CN(C)c1ccc(C(=C2C=CC(=[N+](C)C)C=C2)c2ccccc2)cc1
REMARK SMILES IDX 4 1 5 2 6 3 7 4 24 5 25 6 2 7 1 8 3 9 8 10 9 11 10 12 17 13
REMARK SMILES IDX 11 14 16 15 12 16 13 17 14 18 15 19 18 20 19 21 23 22 20 23
REMARK SMILES IDX 22 24 21 25
REMARK H PARENT
ROOT
ATOM      1  C   UNL     1      27.523 -46.940  54.731  1.00  0.00     0.036 A 
ATOM      2  C   UNL     1      27.437 -46.630  53.361  1.00  0.00     0.026 A 
ATOM      3  C   UNL     1      26.256 -46.800  52.624  1.00  0.00     0.011 A 
ATOM      4  C   UNL     1      25.111 -47.306  53.238  1.00  0.00    -0.017 A 
ATOM      5  C   UNL     1      25.162 -47.627  54.593  1.00  0.00     0.011 A 
ATOM      6  C   UNL     1      26.351 -47.452  55.317  1.00  0.00     0.026 A 
ENDROOT
BRANCH   1   7
ATOM      7  N   UNL     1      28.713 -46.793  55.454  1.00  0.00    -0.378 N 
ATOM      8  C   UNL     1      28.889 -45.608  56.294  1.00  0.00     0.143 C 
ATOM      9  C   UNL     1      29.949 -47.346  54.898  1.00  0.00     0.143 C 
ENDBRANCH   1   7
BRANCH   4  10
ATOM     10  C   UNL     1      23.863 -47.514  52.458  1.00  0.00    -0.004 C 
ATOM     11  C   UNL     1      23.027 -46.467  52.185  1.00  0.00    -0.017 C 
ATOM     12  C   UNL     1      23.321 -45.106  52.641  1.00  0.00     0.015 C 
ATOM     13  C   UNL     1      21.790 -46.646  51.420  1.00  0.00     0.015 C 
ATOM     14  C   UNL     1      22.516 -44.066  52.386  1.00  0.00     0.079 C 
ATOM     15  C   UNL     1      20.958 -45.632  51.141  1.00  0.00     0.079 C 
ATOM     16  C   UNL     1      21.247 -44.235  51.604  1.00  0.00     0.199 C 
ATOM     17  N   UNL     1      20.452 -43.236  51.344  1.00  0.00    -0.235 N 
ATOM     18  C   UNL     1      20.679 -41.863  51.895  1.00  0.00     0.433 C 
ATOM     19  C   UNL     1      19.242 -43.377  50.472  1.00  0.00     0.433 C 
BRANCH  10  20
ATOM     20  C   UNL     1      23.545 -48.887  51.983  1.00  0.00    -0.017 A 
ATOM     21  C   UNL     1      24.468 -49.596  51.202  1.00  0.00     0.009 A 
ATOM     22  C   UNL     1      22.319 -49.482  52.309  1.00  0.00     0.009 A 
ATOM     23  C   UNL     1      24.171 -50.887  50.763  1.00  0.00     0.001 A 
ATOM     24  C   UNL     1      22.024 -50.772  51.867  1.00  0.00     0.001 A 
ATOM     25  C   UNL     1      22.951 -51.474  51.096  1.00  0.00     0.000 A 
ENDBRANCH  10  20
ENDBRANCH   4  10
TORSDOF 3
ENDMDL
MODEL 3
REMARK VINA RESULT:    -6.747      2.049      5.161
REMARK INTER + INTRA:          -8.691
REMARK INTER:                  -7.605
REMARK INTRA:                  -1.087
REMARK UNBOUND:                -0.761
REMARK SMILES CN(C)c1ccc(C(=C2C=CC(=[N+](C)C)C=C2)c2ccccc2)cc1
REMARK SMILES IDX 4 1 5 2 6 3 7 4 24 5 25 6 2 7 1 8 3 9 8 10 9 11 10 12 17 13
REMARK SMILES IDX 11 14 16 15 12 16 13 17 14 18 15 19 18 20 19 21 23 22 20 23
REMARK SMILES IDX 22 24 21 25
REMARK H PARENT
ROOT
ATOM      1  C   UNL     1      24.785 -51.123  51.536  1.00  0.00     0.036 A 
ATOM      2  C   UNL     1      24.097 -50.680  52.681  1.00  0.00     0.026 A 
ATOM      3  C   UNL     1      24.099 -49.338  53.087  1.00  0.00     0.011 A 
ATOM      4  C   UNL     1      24.809 -48.384  52.361  1.00  0.00    -0.017 A 
ATOM      5  C   UNL     1      25.506 -48.789  51.223  1.00  0.00     0.011 A 
ATOM      6  C   UNL     1      25.495 -50.136  50.829  1.00  0.00     0.026 A 
ENDROOT
BRANCH   1   7
ATOM      7  N   UNL     1      24.801 -52.470  51.152  1.00  0.00    -0.378 N 
ATOM      8  C   UNL     1      23.612 -53.289  51.394  1.00  0.00     0.143 C 
ATOM      9  C   UNL     1      26.070 -53.197  51.182  1.00  0.00     0.143 C 
ENDBRANCH   1   7
BRANCH   4  10
ATOM     10  C   UNL     1      24.839 -46.964  52.800  1.00  0.00    -0.004 C 
ATOM     11  C   UNL     1      23.825 -46.110  52.466  1.00  0.00    -0.017 C 
ATOM     12  C   UNL     1      22.675 -46.550  51.672  1.00  0.00     0.015 C 
ATOM     13  C   UNL     1      23.831 -44.705  52.885  1.00  0.00     0.015 C 
ATOM     14  C   UNL     1      21.671 -45.729  51.334  1.00  0.00     0.079 C 
ATOM     15  C   UNL     1      22.846 -43.852  52.569  1.00  0.00     0.079 C 
ATOM     16  C   UNL     1      21.664 -44.290  51.755  1.00  0.00     0.199 C 
ATOM     17  N   UNL     1      20.697 -43.476  51.437  1.00  0.00    -0.235 N 
ATOM     18  C   UNL     1      19.571 -43.878  50.535  1.00  0.00     0.433 C 
ATOM     19  C   UNL     1      20.629 -42.070  51.946  1.00  0.00     0.433 C 
BRANCH  10  20
ATOM     20  C   UNL     1      25.996 -46.496  53.608  1.00  0.00    -0.017 A 
ATOM     21  C   UNL     1      27.224 -46.223  52.991  1.00  0.00     0.009 A 
ATOM     22  C   UNL     1      25.869 -46.328  54.993  1.00  0.00     0.009 A 
ATOM     23  C   UNL     1      28.308 -45.778  53.750  1.00  0.00     0.001 A 
ATOM     24  C   UNL     1      26.954 -45.883  55.749  1.00  0.00     0.001 A 
ATOM     25  C   UNL     1      28.171 -45.607  55.127  1.00  0.00     0.000 A 
ENDBRANCH  10  20
ENDBRANCH   4  10
TORSDOF 3
ENDMDL
MODEL 4
REMARK VINA RESULT:    -6.676      2.403      7.551
REMARK INTER + INTRA:          -8.608
REMARK INTER:                  -7.451
REMARK INTRA:                  -1.156
REMARK UNBOUND:                -0.761
REMARK SMILES CN(C)c1ccc(C(=C2C=CC(=[N+](C)C)C=C2)c2ccccc2)cc1
REMARK SMILES IDX 4 1 5 2 6 3 7 4 24 5 25 6 2 7 1 8 3 9 8 10 9 11 10 12 17 13
REMARK SMILES IDX 11 14 16 15 12 16 13 17 14 18 15 19 18 20 19 21 23 22 20 23
REMARK SMILES IDX 22 24 21 25
REMARK H PARENT
ROOT
ATOM      1  C   UNL     1      21.266 -45.542  51.807  1.00  0.00     0.036 A 
ATOM      2  C   UNL     1      22.478 -45.513  51.091  1.00  0.00     0.026 A 
ATOM      3  C   UNL     1      23.581 -46.301  51.449  1.00  0.00     0.011 A 
ATOM      4  C   UNL     1      23.514 -47.145  52.556  1.00  0.00    -0.017 A 
ATOM      5  C   UNL     1      22.330 -47.195  53.289  1.00  0.00     0.011 A 
ATOM      6  C   UNL     1      21.234 -46.401  52.920  1.00  0.00     0.026 A 
ENDROOT
BRANCH   1   7
ATOM      7  N   UNL     1      20.178 -44.732  51.460  1.00  0.00    -0.378 N 
ATOM      8  C   UNL     1      20.425 -43.342  51.074  1.00  0.00     0.143 C 
ATOM      9  C   UNL     1      18.885 -44.976  52.101  1.00  0.00     0.143 C 
ENDBRANCH   1   7
BRANCH   4  10
ATOM     10  C   UNL     1      24.689 -47.963  52.957  1.00  0.00    -0.004 C 
ATOM     11  C   UNL     1      24.739 -49.299  52.671  1.00  0.00    -0.017 C 
ATOM     12  C   UNL     1      23.650 -49.977  51.962  1.00  0.00     0.015 C 
ATOM     13  C   UNL     1      25.883 -50.129  53.057  1.00  0.00     0.015 C 
ATOM     14  C   UNL     1      23.679 -51.286  51.672  1.00  0.00     0.079 C 
ATOM     15  C   UNL     1      25.951 -51.440  52.785  1.00  0.00     0.079 C 
ATOM     16  C   UNL     1      24.843 -52.146  52.061  1.00  0.00     0.199 C 
ATOM     17  N   UNL     1      24.891 -53.419  51.788  1.00  0.00    -0.235 N 
ATOM     18  C   UNL     1      23.743 -54.151  51.164  1.00  0.00     0.433 C 
ATOM     19  C   UNL     1      26.096 -54.260  52.075  1.00  0.00     0.433 C 
BRANCH  10  20
ATOM     20  C   UNL     1      25.805 -47.295  53.677  1.00  0.00    -0.017 A 
ATOM     21  C   UNL     1      25.757 -47.143  55.069  1.00  0.00     0.009 A 
ATOM     22  C   UNL     1      26.912 -46.810  52.969  1.00  0.00     0.009 A 
ATOM     23  C   UNL     1      26.809 -46.521  55.744  1.00  0.00     0.001 A 
ATOM     24  C   UNL     1      27.962 -46.188  53.647  1.00  0.00     0.001 A 
ATOM     25  C   UNL     1      27.910 -46.046  55.034  1.00  0.00     0.000 A 
ENDBRANCH  10  20
ENDBRANCH   4  10
TORSDOF 3
ENDMDL
MODEL 5
REMARK VINA RESULT:    -6.642      8.543     12.334
REMARK INTER + INTRA:          -8.568
REMARK INTER:                  -7.412
REMARK INTRA:                  -1.156
REMARK UNBOUND:                -0.761
REMARK SMILES CN(C)c1ccc(C(=C2C=CC(=[N+](C)C)C=C2)c2ccccc2)cc1
REMARK SMILES IDX 4 1 5 2 6 3 7 4 24 5 25 6 2 7 1 8 3 9 8 10 9 11 10 12 17 13
REMARK SMILES IDX 11 14 16 15 12 16 13 17 14 18 15 19 18 20 19 21 23 22 20 23
REMARK SMILES IDX 22 24 21 25
REMARK H PARENT
ROOT
ATOM      1  C   UNL     1      21.876 -60.396  51.182  1.00  0.00     0.036 A 
ATOM      2  C   UNL     1      21.113 -59.215  51.117  1.00  0.00     0.026 A 
ATOM      3  C   UNL     1      21.514 -58.025  51.742  1.00  0.00     0.011 A 
ATOM      4  C   UNL     1      22.699 -57.979  52.473  1.00  0.00    -0.017 A 
ATOM      5  C   UNL     1      23.478 -59.132  52.561  1.00  0.00     0.011 A 
ATOM      6  C   UNL     1      23.064 -60.315  51.931  1.00  0.00     0.026 A 
ENDROOT
BRANCH   1   7
ATOM      7  N   UNL     1      21.457 -61.587  50.578  1.00  0.00    -0.378 N 
ATOM      8  C   UNL     1      20.114 -61.652  49.999  1.00  0.00     0.143 C 
ATOM      9  C   UNL     1      21.971 -62.858  51.092  1.00  0.00     0.143 C 
ENDBRANCH   1   7
BRANCH   4  10
ATOM     10  C   UNL     1      23.117 -56.729  53.161  1.00  0.00    -0.004 C 
ATOM     11  C   UNL     1      22.632 -56.420  54.401  1.00  0.00    -0.017 C 
ATOM     12  C   UNL     1      21.690 -57.296  55.102  1.00  0.00     0.015 C 
ATOM     13  C   UNL     1      23.027 -55.193  55.100  1.00  0.00     0.015 C 
ATOM     14  C   UNL     1      21.202 -57.011  56.317  1.00  0.00     0.079 C 
ATOM     15  C   UNL     1      22.563 -54.873  56.316  1.00  0.00     0.079 C 
ATOM     16  C   UNL     1      21.597 -55.760  57.043  1.00  0.00     0.199 C 
ATOM     17  N   UNL     1      21.134 -55.466  58.226  1.00  0.00    -0.235 N 
ATOM     18  C   UNL     1      20.088 -56.292  58.908  1.00  0.00     0.433 C 
ATOM     19  C   UNL     1      21.608 -54.277  59.002  1.00  0.00     0.433 C 
BRANCH  10  20
ATOM     20  C   UNL     1      24.074 -55.826  52.469  1.00  0.00    -0.017 A 
ATOM     21  C   UNL     1      25.451 -56.080  52.523  1.00  0.00     0.009 A 
ATOM     22  C   UNL     1      23.607 -54.710  51.762  1.00  0.00     0.009 A 
ATOM     23  C   UNL     1      26.348 -55.235  51.867  1.00  0.00     0.001 A 
ATOM     24  C   UNL     1      24.506 -53.866  51.108  1.00  0.00     0.001 A 
ATOM     25  C   UNL     1      25.875 -54.130  51.160  1.00  0.00     0.000 A 
ENDBRANCH  10  20
ENDBRANCH   4  10
TORSDOF 3
ENDMDL
MODEL 6
REMARK VINA RESULT:    -6.641      5.485      9.188
REMARK INTER + INTRA:          -8.567
REMARK INTER:                  -7.454
REMARK INTRA:                  -1.113
REMARK UNBOUND:                -0.761
REMARK SMILES CN(C)c1ccc(C(=C2C=CC(=[N+](C)C)C=C2)c2ccccc2)cc1
REMARK SMILES IDX 4 1 5 2 6 3 7 4 24 5 25 6 2 7 1 8 3 9 8 10 9 11 10 12 17 13
REMARK SMILES IDX 11 14 16 15 12 16 13 17 14 18 15 19 18 20 19 21 23 22 20 23
REMARK SMILES IDX 22 24 21 25
REMARK H PARENT
ROOT
ATOM      1  C   UNL     1      32.868 -43.494  53.924  1.00  0.00     0.036 A 
ATOM      2  C   UNL     1      32.538 -44.149  52.722  1.00  0.00     0.026 A 
ATOM      3  C   UNL     1      32.323 -45.533  52.655  1.00  0.00     0.011 A 
ATOM      4  C   UNL     1      32.446 -46.321  53.798  1.00  0.00    -0.017 A 
ATOM      5  C   UNL     1      32.775 -45.705  55.004  1.00  0.00     0.011 A 
ATOM      6  C   UNL     1      32.988 -44.320  55.057  1.00  0.00     0.026 A 
ENDROOT
BRANCH   1   7
ATOM      7  N   UNL     1      33.109 -42.116  53.978  1.00  0.00    -0.378 N 
ATOM      8  C   UNL     1      32.089 -41.243  54.562  1.00  0.00     0.143 C 
ATOM      9  C   UNL     1      33.926 -41.500  52.932  1.00  0.00     0.143 C 
ENDBRANCH   1   7
BRANCH   4  10
ATOM     10  C   UNL     1      32.245 -47.792  53.729  1.00  0.00    -0.004 C 
ATOM     11  C   UNL     1      31.010 -48.339  53.938  1.00  0.00    -0.017 C 
ATOM     12  C   UNL     1      29.839 -47.508  54.234  1.00  0.00     0.015 C 
ATOM     13  C   UNL     1      30.786 -49.786  53.878  1.00  0.00     0.015 C 
ATOM     14  C   UNL     1      28.620 -48.024  54.443  1.00  0.00     0.079 C 
ATOM     15  C   UNL     1      29.582 -50.340  54.080  1.00  0.00     0.079 C 
ATOM     16  C   UNL     1      28.376 -49.502  54.385  1.00  0.00     0.199 C 
ATOM     17  N   UNL     1      27.198 -50.022  54.584  1.00  0.00    -0.235 N 
ATOM     18  C   UNL     1      26.016 -49.201  54.995  1.00  0.00     0.433 C 
ATOM     19  C   UNL     1      26.926 -51.485  54.418  1.00  0.00     0.433 C 
BRANCH  10  20
ATOM     20  C   UNL     1      33.419 -48.654  53.429  1.00  0.00    -0.017 A 
ATOM     21  C   UNL     1      33.572 -49.222  52.157  1.00  0.00     0.009 A 
ATOM     22  C   UNL     1      34.380 -48.909  54.416  1.00  0.00     0.009 A 
ATOM     23  C   UNL     1      34.677 -50.026  51.874  1.00  0.00     0.001 A 
ATOM     24  C   UNL     1      35.484 -49.713  54.131  1.00  0.00     0.001 A 
ATOM     25  C   UNL     1      35.633 -50.269  52.860  1.00  0.00     0.000 A 
ENDBRANCH  10  20
ENDBRANCH   4  10
TORSDOF 3
ENDMDL
MODEL 7
REMARK VINA RESULT:    -6.605      1.668      6.565
REMARK INTER + INTRA:          -8.524
REMARK INTER:                  -7.312
REMARK INTRA:                  -1.212
REMARK UNBOUND:                -0.761
REMARK SMILES CN(C)c1ccc(C(=C2C=CC(=[N+](C)C)C=C2)c2ccccc2)cc1
REMARK SMILES IDX 4 1 5 2 6 3 7 4 24 5 25 6 2 7 1 8 3 9 8 10 9 11 10 12 17 13
REMARK SMILES IDX 11 14 16 15 12 16 13 17 14 18 15 19 18 20 19 21 23 22 20 23
REMARK SMILES IDX 22 24 21 25
REMARK H PARENT
ROOT
ATOM      1  C   UNL     1      21.012 -45.193  51.744  1.00  0.00     0.036 A 
ATOM      2  C   UNL     1      22.192 -45.032  50.994  1.00  0.00     0.026 A 
ATOM      3  C   UNL     1      23.402 -45.641  51.357  1.00  0.00     0.011 A 
ATOM      4  C   UNL     1      23.478 -46.428  52.504  1.00  0.00    -0.017 A 
ATOM      5  C   UNL     1      22.328 -46.605  53.272  1.00  0.00     0.011 A 
ATOM      6  C   UNL     1      21.124 -45.990  52.897  1.00  0.00     0.026 A 
ENDROOT
BRANCH   1   7
ATOM      7  N   UNL     1      19.814 -44.561  51.390  1.00  0.00    -0.378 N 
ATOM      8  C   UNL     1      19.871 -43.258  50.724  1.00  0.00     0.143 C 
ATOM      9  C   UNL     1      18.629 -44.780  52.220  1.00  0.00     0.143 C 
ENDBRANCH   1   7
BRANCH   4  10
ATOM     10  C   UNL     1      24.763 -47.055  52.911  1.00  0.00    -0.004 C 
ATOM     11  C   UNL     1      25.657 -46.372  53.688  1.00  0.00    -0.017 C 
ATOM     12  C   UNL     1      25.390 -45.007  54.152  1.00  0.00     0.015 C 
ATOM     13  C   UNL     1      26.931 -46.965  54.101  1.00  0.00     0.015 C 
ATOM     14  C   UNL     1      26.253 -44.320  54.914  1.00  0.00     0.079 C 
ATOM     15  C   UNL     1      27.820 -46.312  54.864  1.00  0.00     0.079 C 
ATOM     16  C   UNL     1      27.560 -44.915  55.344  1.00  0.00     0.199 C 
ATOM     17  N   UNL     1      28.411 -44.263  56.085  1.00  0.00    -0.235 N 
ATOM     18  C   UNL     1      28.207 -42.833  56.477  1.00  0.00     0.433 C 
ATOM     19  C   UNL     1      29.667 -44.889  56.609  1.00  0.00     0.433 C 
BRANCH  10  20
ATOM     20  C   UNL     1      25.054 -48.439  52.452  1.00  0.00    -0.017 A 
ATOM     21  C   UNL     1      25.730 -48.655  51.244  1.00  0.00     0.009 A 
ATOM     22  C   UNL     1      24.650 -49.538  53.221  1.00  0.00     0.009 A 
ATOM     23  C   UNL     1      26.008 -49.955  50.818  1.00  0.00     0.001 A 
ATOM     24  C   UNL     1      24.928 -50.836  52.792  1.00  0.00     0.001 A 
ATOM     25  C   UNL     1      25.609 -51.043  51.592  1.00  0.00     0.000 A 
ENDBRANCH  10  20
ENDBRANCH   4  10
TORSDOF 3
ENDMDL
MODEL 8
REMARK VINA RESULT:    -6.588      3.424      5.946
REMARK INTER + INTRA:          -8.504
REMARK INTER:                  -7.336
REMARK INTRA:                  -1.169
REMARK UNBOUND:                -0.761
REMARK SMILES CN(C)c1ccc(C(=C2C=CC(=[N+](C)C)C=C2)c2ccccc2)cc1
REMARK SMILES IDX 4 1 5 2 6 3 7 4 24 5 25 6 2 7 1 8 3 9 8 10 9 11 10 12 17 13
REMARK SMILES IDX 11 14 16 15 12 16 13 17 14 18 15 19 18 20 19 21 23 22 20 23
REMARK SMILES IDX 22 24 21 25
REMARK H PARENT
ROOT
ATOM      1  C   UNL     1      24.095 -48.435  51.980  1.00  0.00     0.036 A 
ATOM      2  C   UNL     1      24.418 -47.083  51.757  1.00  0.00     0.026 A 
ATOM      3  C   UNL     1      23.595 -46.032  52.188  1.00  0.00     0.011 A 
ATOM      4  C   UNL     1      22.400 -46.301  52.852  1.00  0.00    -0.017 A 
ATOM      5  C   UNL     1      22.048 -47.629  53.086  1.00  0.00     0.011 A 
ATOM      6  C   UNL     1      22.880 -48.670  52.649  1.00  0.00     0.026 A 
ENDROOT
BRANCH   1   7
ATOM      7  N   UNL     1      24.908 -49.479  51.523  1.00  0.00    -0.378 N 
ATOM      8  C   UNL     1      24.278 -50.647  50.905  1.00  0.00     0.143 C 
ATOM      9  C   UNL     1      26.166 -49.751  52.220  1.00  0.00     0.143 C 
ENDBRANCH   1   7
BRANCH   4  10
ATOM     10  C   UNL     1      21.509 -45.194  53.288  1.00  0.00    -0.004 C 
ATOM     11  C   UNL     1      21.627 -44.654  54.538  1.00  0.00    -0.017 C 
ATOM     12  C   UNL     1      22.627 -45.137  55.495  1.00  0.00     0.015 C 
ATOM     13  C   UNL     1      20.761 -43.564  54.993  1.00  0.00     0.015 C 
ATOM     14  C   UNL     1      22.760 -44.623  56.726  1.00  0.00     0.079 C 
ATOM     15  C   UNL     1      20.862 -43.021  56.215  1.00  0.00     0.079 C 
ATOM     16  C   UNL     1      21.880 -43.507  57.204  1.00  0.00     0.199 C 
ATOM     17  N   UNL     1      21.993 -42.993  58.396  1.00  0.00    -0.235 N 
ATOM     18  C   UNL     1      22.932 -43.545  59.424  1.00  0.00     0.433 C 
ATOM     19  C   UNL     1      21.194 -41.807  58.841  1.00  0.00     0.433 C 
BRANCH  10  20
ATOM     20  C   UNL     1      20.488 -44.688  52.333  1.00  0.00    -0.017 A 
ATOM     21  C   UNL     1      19.162 -45.133  52.415  1.00  0.00     0.009 A 
ATOM     22  C   UNL     1      20.844 -43.766  51.340  1.00  0.00     0.009 A 
ATOM     23  C   UNL     1      18.203 -44.653  51.522  1.00  0.00     0.001 A 
ATOM     24  C   UNL     1      19.883 -43.288  50.448  1.00  0.00     0.001 A 
ATOM     25  C   UNL     1      18.563 -43.730  50.541  1.00  0.00     0.000 A 
ENDBRANCH  10  20
ENDBRANCH   4  10
TORSDOF 3
ENDMDL
MODEL 9
REMARK VINA RESULT:    -6.520      2.149      5.005
REMARK INTER + INTRA:          -8.424
REMARK INTER:                  -7.241
REMARK INTRA:                  -1.183
REMARK UNBOUND:                -0.761
REMARK SMILES CN(C)c1ccc(C(=C2C=CC(=[N+](C)C)C=C2)c2ccccc2)cc1
REMARK SMILES IDX 4 1 5 2 6 3 7 4 24 5 25 6 2 7 1 8 3 9 8 10 9 11 10 12 17 13
REMARK SMILES IDX 11 14 16 15 12 16 13 17 14 18 15 19 18 20 19 21 23 22 20 23
REMARK SMILES IDX 22 24 21 25
REMARK H PARENT
ROOT
ATOM      1  C   UNL     1      25.324 -49.807  52.103  1.00  0.00     0.036 A 
ATOM      2  C   UNL     1      24.572 -49.565  53.268  1.00  0.00     0.026 A 
ATOM      3  C   UNL     1      24.319 -48.270  53.744  1.00  0.00     0.011 A 
ATOM      4  C   UNL     1      24.828 -47.161  53.071  1.00  0.00    -0.017 A 
ATOM      5  C   UNL     1      25.581 -47.365  51.917  1.00  0.00     0.011 A 
ATOM      6  C   UNL     1      25.827 -48.666  51.452  1.00  0.00     0.026 A 
ENDROOT
BRANCH   1   7
ATOM      7  N   UNL     1      25.596 -51.103  51.649  1.00  0.00    -0.378 N 
ATOM      8  C   UNL     1      24.492 -51.923  51.147  1.00  0.00     0.143 C 
ATOM      9  C   UNL     1      26.692 -51.852  52.265  1.00  0.00     0.143 C 
ENDBRANCH   1   7
BRANCH   4  10
ATOM     10  C   UNL     1      24.587 -45.787  53.585  1.00  0.00    -0.004 C 
ATOM     11  C   UNL     1      23.566 -45.025  53.087  1.00  0.00    -0.017 C 
ATOM     12  C   UNL     1      22.672 -45.524  52.039  1.00  0.00     0.015 C 
ATOM     13  C   UNL     1      23.309 -43.668  53.575  1.00  0.00     0.015 C 
ATOM     14  C   UNL     1      21.667 -44.794  51.537  1.00  0.00     0.079 C 
ATOM     15  C   UNL     1      22.313 -42.906  53.100  1.00  0.00     0.079 C 
ATOM     16  C   UNL     1      21.391 -43.403  52.026  1.00  0.00     0.199 C 
ATOM     17  N   UNL     1      20.418 -42.678  51.552  1.00  0.00    -0.235 N 
ATOM     18  C   UNL     1      19.565 -43.127  50.406  1.00  0.00     0.433 C 
ATOM     19  C   UNL     1      20.069 -41.334  52.112  1.00  0.00     0.433 C 
BRANCH  10  20
ATOM     20  C   UNL     1      25.482 -45.261  54.650  1.00  0.00    -0.017 A 
ATOM     21  C   UNL     1      25.118 -45.377  55.999  1.00  0.00     0.009 A 
ATOM     22  C   UNL     1      26.693 -44.642  54.314  1.00  0.00     0.009 A 
ATOM     23  C   UNL     1      25.962 -44.889  56.998  1.00  0.00     0.001 A 
ATOM     24  C   UNL     1      27.533 -44.154  55.316  1.00  0.00     0.001 A 
ATOM     25  C   UNL     1      27.169 -44.280  56.656  1.00  0.00     0.000 A 
ENDBRANCH  10  20
ENDBRANCH   4  10
TORSDOF 3
ENDMDL
MODEL 10
REMARK VINA RESULT:    -6.435      0.979      6.517
REMARK INTER + INTRA:          -8.324
REMARK INTER:                  -7.700
REMARK INTRA:                  -0.624
REMARK UNBOUND:                -0.761
REMARK SMILES CN(C)c1ccc(C(=C2C=CC(=[N+](C)C)C=C2)c2ccccc2)cc1
REMARK SMILES IDX 4 1 5 2 6 3 7 4 24 5 25 6 2 7 1 8 3 9 8 10 9 11 10 12 17 13
REMARK SMILES IDX 11 14 16 15 12 16 13 17 14 18 15 19 18 20 19 21 23 22 20 23
REMARK SMILES IDX 22 24 21 25
REMARK H PARENT
ROOT
ATOM      1  C   UNL     1      20.682 -44.458  51.935  1.00  0.00     0.036 A 
ATOM      2  C   UNL     1      20.757 -45.248  53.097  1.00  0.00     0.026 A 
ATOM      3  C   UNL     1      21.760 -46.208  53.291  1.00  0.00     0.011 A 
ATOM      4  C   UNL     1      22.726 -46.424  52.310  1.00  0.00    -0.017 A 
ATOM      5  C   UNL     1      22.679 -45.662  51.144  1.00  0.00     0.011 A 
ATOM      6  C   UNL     1      21.669 -44.705  50.963  1.00  0.00     0.026 A 
ENDROOT
BRANCH   1   7
ATOM      7  N   UNL     1      19.661 -43.521  51.737  1.00  0.00    -0.378 N 
ATOM      8  C   UNL     1      18.518 -43.885  50.897  1.00  0.00     0.143 C 
ATOM      9  C   UNL     1      20.001 -42.097  51.734  1.00  0.00     0.143 C 
ENDBRANCH   1   7
BRANCH   4  10
ATOM     10  C   UNL     1      23.777 -47.458  52.495  1.00  0.00    -0.004 C 
ATOM     11  C   UNL     1      24.955 -47.153  53.119  1.00  0.00    -0.017 C 
ATOM     12  C   UNL     1      25.231 -45.807  53.629  1.00  0.00     0.015 C 
ATOM     13  C   UNL     1      26.008 -48.153  53.313  1.00  0.00     0.015 C 
ATOM     14  C   UNL     1      26.378 -45.486  54.243  1.00  0.00     0.079 C 
ATOM     15  C   UNL     1      27.169 -47.873  53.923  1.00  0.00     0.079 C 
ATOM     16  C   UNL     1      27.464 -46.500  54.448  1.00  0.00     0.199 C 
ATOM     17  N   UNL     1      28.586 -46.208  55.043  1.00  0.00    -0.235 N 
ATOM     18  C   UNL     1      28.930 -44.815  55.472  1.00  0.00     0.433 C 
ATOM     19  C   UNL     1      29.627 -47.240  55.350  1.00  0.00     0.433 C 
BRANCH  10  20
ATOM     20  C   UNL     1      23.518 -48.831  51.986  1.00  0.00    -0.017 A 
ATOM     21  C   UNL     1      24.482 -49.491  51.211  1.00  0.00     0.009 A 
ATOM     22  C   UNL     1      22.308 -49.475  52.275  1.00  0.00     0.009 A 
ATOM     23  C   UNL     1      24.240 -50.782  50.739  1.00  0.00     0.001 A 
ATOM     24  C   UNL     1      22.069 -50.766  51.801  1.00  0.00     0.001 A 
ATOM     25  C   UNL     1      23.035 -51.419  51.035  1.00  0.00     0.000 A 
ENDBRANCH  10  20
ENDBRANCH   4  10
TORSDOF 3
ENDMDL
MODEL 11
REMARK VINA RESULT:    -6.354      2.616      6.675
REMARK INTER + INTRA:          -8.229
REMARK INTER:                  -7.072
REMARK INTRA:                  -1.157
REMARK UNBOUND:                -0.761
REMARK SMILES CN(C)c1ccc(C(=C2C=CC(=[N+](C)C)C=C2)c2ccccc2)cc1
REMARK SMILES IDX 4 1 5 2 6 3 7 4 24 5 25 6 2 7 1 8 3 9 8 10 9 11 10 12 17 13
REMARK SMILES IDX 11 14 16 15 12 16 13 17 14 18 15 19 18 20 19 21 23 22 20 23
REMARK SMILES IDX 22 24 21 25
REMARK H PARENT
ROOT
ATOM      1  C   UNL     1      24.949 -51.617  51.479  1.00  0.00     0.036 A 
ATOM      2  C   UNL     1      24.225 -51.144  52.589  1.00  0.00     0.026 A 
ATOM      3  C   UNL     1      24.240 -49.797  52.978  1.00  0.00     0.011 A 
ATOM      4  C   UNL     1      25.000 -48.869  52.270  1.00  0.00    -0.017 A 
ATOM      5  C   UNL     1      25.733 -49.304  51.167  1.00  0.00     0.011 A 
ATOM      6  C   UNL     1      25.709 -50.655  50.789  1.00  0.00     0.026 A 
ENDROOT
BRANCH   1   7
ATOM      7  N   UNL     1      24.950 -52.969  51.113  1.00  0.00    -0.378 N 
ATOM      8  C   UNL     1      23.775 -53.786  51.418  1.00  0.00     0.143 C 
ATOM      9  C   UNL     1      26.221 -53.694  51.098  1.00  0.00     0.143 C 
ENDBRANCH   1   7
BRANCH   4  10
ATOM     10  C   UNL     1      25.043 -47.444  52.691  1.00  0.00    -0.004 C 
ATOM     11  C   UNL     1      26.106 -46.958  53.401  1.00  0.00    -0.017 C 
ATOM     12  C   UNL     1      27.240 -47.810  53.772  1.00  0.00     0.015 C 
ATOM     13  C   UNL     1      26.172 -45.559  53.831  1.00  0.00     0.015 C 
ATOM     14  C   UNL     1      28.290 -47.354  54.468  1.00  0.00     0.079 C 
ATOM     15  C   UNL     1      27.206 -45.064  54.527  1.00  0.00     0.079 C 
ATOM     16  C   UNL     1      28.371 -45.925  54.914  1.00  0.00     0.199 C 
ATOM     17  N   UNL     1      29.385 -45.462  55.590  1.00  0.00    -0.235 N 
ATOM     18  C   UNL     1      30.497 -46.341  56.073  1.00  0.00     0.433 C 
ATOM     19  C   UNL     1      29.524 -44.013  55.942  1.00  0.00     0.433 C 
BRANCH  10  20
ATOM     20  C   UNL     1      23.904 -46.561  52.324  1.00  0.00    -0.017 A 
ATOM     21  C   UNL     1      22.849 -46.359  53.224  1.00  0.00     0.009 A 
ATOM     22  C   UNL     1      23.874 -45.928  51.075  1.00  0.00     0.009 A 
ATOM     23  C   UNL     1      21.784 -45.525  52.881  1.00  0.00     0.001 A 
ATOM     24  C   UNL     1      22.807 -45.096  50.734  1.00  0.00     0.001 A 
ATOM     25  C   UNL     1      21.764 -44.893  51.638  1.00  0.00     0.000 A 
ENDBRANCH  10  20
ENDBRANCH   4  10
TORSDOF 3
ENDMDL
MODEL 12
REMARK VINA RESULT:    -6.264      5.621      7.772
REMARK INTER + INTRA:          -8.123
REMARK INTER:                  -6.969
REMARK INTRA:                  -1.154
REMARK UNBOUND:                -0.761
REMARK SMILES CN(C)c1ccc(C(=C2C=CC(=[N+](C)C)C=C2)c2ccccc2)cc1
REMARK SMILES IDX 4 1 5 2 6 3 7 4 24 5 25 6 2 7 1 8 3 9 8 10 9 11 10 12 17 13
REMARK SMILES IDX 11 14 16 15 12 16 13 17 14 18 15 19 18 20 19 21 23 22 20 23
REMARK SMILES IDX 22 24 21 25
REMARK H PARENT
ROOT
ATOM      1  C   UNL     1      29.229 -55.794  53.342  1.00  0.00     0.036 A 
ATOM      2  C   UNL     1      28.555 -55.780  52.106  1.00  0.00     0.026 A 
ATOM      3  C   UNL     1      27.248 -55.290  51.968  1.00  0.00     0.011 A 
ATOM      4  C   UNL     1      26.557 -54.806  53.077  1.00  0.00    -0.017 A 
ATOM      5  C   UNL     1      27.193 -54.810  54.317  1.00  0.00     0.011 A 
ATOM      6  C   UNL     1      28.501 -55.302  54.441  1.00  0.00     0.026 A 
ENDROOT
BRANCH   1   7
ATOM      7  N   UNL     1      30.524 -56.309  53.478  1.00  0.00    -0.378 N 
ATOM      8  C   UNL     1      30.695 -57.749  53.680  1.00  0.00     0.143 C 
ATOM      9  C   UNL     1      31.556 -55.471  54.090  1.00  0.00     0.143 C 
ENDBRANCH   1   7
BRANCH   4  10
ATOM     10  C   UNL     1      25.162 -54.311  52.944  1.00  0.00    -0.004 C 
ATOM     11  C   UNL     1      24.912 -52.998  52.657  1.00  0.00    -0.017 C 
ATOM     12  C   UNL     1      25.996 -52.030  52.468  1.00  0.00     0.015 C 
ATOM     13  C   UNL     1      23.546 -52.484  52.522  1.00  0.00     0.015 C 
ATOM     14  C   UNL     1      25.773 -50.739  52.187  1.00  0.00     0.079 C 
ATOM     15  C   UNL     1      23.281 -51.200  52.240  1.00  0.00     0.079 C 
ATOM     16  C   UNL     1      24.381 -50.199  52.046  1.00  0.00     0.199 C 
ATOM     17  N   UNL     1      24.143 -48.948  51.772  1.00  0.00    -0.235 N 
ATOM     18  C   UNL     1      25.232 -47.923  51.684  1.00  0.00     0.433 C 
ATOM     19  C   UNL     1      22.762 -48.427  51.521  1.00  0.00     0.433 C 
BRANCH  10  20
ATOM     20  C   UNL     1      24.046 -55.277  53.130  1.00  0.00    -0.017 A 
ATOM     21  C   UNL     1      23.348 -55.323  54.345  1.00  0.00     0.009 A 
ATOM     22  C   UNL     1      23.686 -56.150  52.096  1.00  0.00     0.009 A 
ATOM     23  C   UNL     1      22.297 -56.225  54.516  1.00  0.00     0.001 A 
ATOM     24  C   UNL     1      22.636 -57.051  52.271  1.00  0.00     0.001 A 
ATOM     25  C   UNL     1      21.941 -57.087  53.479  1.00  0.00     0.000 A 
ENDBRANCH  10  20
ENDBRANCH   4  10
TORSDOF 3
ENDMDL
MODEL 13
REMARK VINA RESULT:    -6.145      2.456      5.618
REMARK INTER + INTRA:          -7.984
REMARK INTER:                  -6.860
REMARK INTRA:                  -1.124
REMARK UNBOUND:                -0.761
REMARK SMILES CN(C)c1ccc(C(=C2C=CC(=[N+](C)C)C=C2)c2ccccc2)cc1
REMARK SMILES IDX 4 1 5 2 6 3 7 4 24 5 25 6 2 7 1 8 3 9 8 10 9 11 10 12 17 13
REMARK SMILES IDX 11 14 16 15 12 16 13 17 14 18 15 19 18 20 19 21 23 22 20 23
REMARK SMILES IDX 22 24 21 25
REMARK H PARENT
ROOT
ATOM      1  C   UNL     1      27.920 -45.614  55.063  1.00  0.00     0.036 A 
ATOM      2  C   UNL     1      26.676 -45.928  55.640  1.00  0.00     0.026 A 
ATOM      3  C   UNL     1      25.656 -46.572  54.925  1.00  0.00     0.011 A 
ATOM      4  C   UNL     1      25.843 -46.914  53.587  1.00  0.00    -0.017 A 
ATOM      5  C   UNL     1      27.063 -46.614  52.982  1.00  0.00     0.011 A 
ATOM      6  C   UNL     1      28.074 -45.969  53.710  1.00  0.00     0.026 A 
ENDROOT
BRANCH   1   7
ATOM      7  N   UNL     1      28.924 -44.946  55.775  1.00  0.00    -0.378 N 
ATOM      8  C   UNL     1      28.618 -43.649  56.381  1.00  0.00     0.143 C 
ATOM      9  C   UNL     1      30.318 -45.125  55.366  1.00  0.00     0.143 C 
ENDBRANCH   1   7
BRANCH   4  10
ATOM     10  C   UNL     1      24.757 -47.573  52.814  1.00  0.00    -0.004 C 
ATOM     11  C   UNL     1      24.797 -48.915  52.560  1.00  0.00    -0.017 C 
ATOM     12  C   UNL     1      25.898 -49.758  53.034  1.00  0.00     0.015 C 
ATOM     13  C   UNL     1      23.741 -49.588  51.799  1.00  0.00     0.015 C 
ATOM     14  C   UNL     1      25.957 -51.075  52.795  1.00  0.00     0.079 C 
ATOM     15  C   UNL     1      23.762 -50.904  51.540  1.00  0.00     0.079 C 
ATOM     16  C   UNL     1      24.884 -51.777  52.018  1.00  0.00     0.199 C 
ATOM     17  N   UNL     1      24.922 -53.057  51.776  1.00  0.00    -0.235 N 
ATOM     18  C   UNL     1      26.090 -53.912  52.157  1.00  0.00     0.433 C 
ATOM     19  C   UNL     1      23.801 -53.782  51.098  1.00  0.00     0.433 C 
BRANCH  10  20
ATOM     20  C   UNL     1      23.629 -46.737  52.324  1.00  0.00    -0.017 A 
ATOM     21  C   UNL     1      22.401 -46.743  52.999  1.00  0.00     0.009 A 
ATOM     22  C   UNL     1      23.783 -45.940  51.182  1.00  0.00     0.009 A 
ATOM     23  C   UNL     1      21.345 -45.953  52.542  1.00  0.00     0.001 A 
ATOM     24  C   UNL     1      22.725 -45.153  50.727  1.00  0.00     0.001 A 
ATOM     25  C   UNL     1      21.508 -45.158  51.408  1.00  0.00     0.000 A 
ENDBRANCH  10  20
ENDBRANCH   4  10
TORSDOF 3
ENDMDL
MODEL 14
REMARK VINA RESULT:    -6.143      3.606      7.821
REMARK INTER + INTRA:          -7.981
REMARK INTER:                  -6.847
REMARK INTRA:                  -1.134
REMARK UNBOUND:                -0.761
REMARK SMILES CN(C)c1ccc(C(=C2C=CC(=[N+](C)C)C=C2)c2ccccc2)cc1
REMARK SMILES IDX 4 1 5 2 6 3 7 4 24 5 25 6 2 7 1 8 3 9 8 10 9 11 10 12 17 13
REMARK SMILES IDX 11 14 16 15 12 16 13 17 14 18 15 19 18 20 19 21 23 22 20 23
REMARK SMILES IDX 22 24 21 25
REMARK H PARENT
ROOT
ATOM      1  C   UNL     1      25.920 -53.484  52.108  1.00  0.00     0.036 A 
ATOM      2  C   UNL     1      25.906 -53.024  53.438  1.00  0.00     0.026 A 
ATOM      3  C   UNL     1      26.078 -51.672  53.767  1.00  0.00     0.011 A 
ATOM      4  C   UNL     1      26.287 -50.725  52.766  1.00  0.00    -0.017 A 
ATOM      5  C   UNL     1      26.310 -51.147  51.438  1.00  0.00     0.011 A 
ATOM      6  C   UNL     1      26.137 -52.503  51.124  1.00  0.00     0.026 A 
ENDROOT
BRANCH   1   7
ATOM      7  N   UNL     1      25.774 -54.840  51.788  1.00  0.00    -0.378 N 
ATOM      8  C   UNL     1      24.534 -55.525  52.158  1.00  0.00     0.143 C 
ATOM      9  C   UNL     1      26.965 -55.689  51.757  1.00  0.00     0.143 C 
ENDBRANCH   1   7
BRANCH   4  10
ATOM     10  C   UNL     1      26.498 -49.294  53.109  1.00  0.00    -0.004 C 
ATOM     11  C   UNL     1      27.703 -48.861  53.588  1.00  0.00    -0.017 C 
ATOM     12  C   UNL     1      28.830 -49.778  53.782  1.00  0.00     0.015 C 
ATOM     13  C   UNL     1      27.936 -47.457  53.936  1.00  0.00     0.015 C 
ATOM     14  C   UNL     1      30.018 -49.375  54.252  1.00  0.00     0.079 C 
ATOM     15  C   UNL     1      29.110 -47.013  54.406  1.00  0.00     0.079 C 
ATOM     16  C   UNL     1      30.271 -47.941  54.611  1.00  0.00     0.199 C 
ATOM     17  N   UNL     1      31.420 -47.529  55.067  1.00  0.00    -0.235 N 
ATOM     18  C   UNL     1      32.545 -48.467  55.376  1.00  0.00     0.433 C 
ATOM     19  C   UNL     1      31.713 -46.083  55.323  1.00  0.00     0.433 C 
BRANCH  10  20
ATOM     20  C   UNL     1      25.368 -48.346  52.919  1.00  0.00    -0.017 A 
ATOM     21  C   UNL     1      24.384 -48.212  53.908  1.00  0.00     0.009 A 
ATOM     22  C   UNL     1      25.276 -47.581  51.748  1.00  0.00     0.009 A 
ATOM     23  C   UNL     1      23.327 -47.317  53.731  1.00  0.00     0.001 A 
ATOM     24  C   UNL     1      24.218 -46.688  51.574  1.00  0.00     0.001 A 
ATOM     25  C   UNL     1      23.246 -46.555  52.566  1.00  0.00     0.000 A 
ENDBRANCH  10  20
ENDBRANCH   4  10
TORSDOF 3
ENDMDL
MODEL 15
REMARK VINA RESULT:    -6.124      4.952      9.644
REMARK INTER + INTRA:          -7.959
REMARK INTER:                  -6.760
REMARK INTRA:                  -1.199
REMARK UNBOUND:                -0.761
REMARK SMILES CN(C)c1ccc(C(=C2C=CC(=[N+](C)C)C=C2)c2ccccc2)cc1
REMARK SMILES IDX 4 1 5 2 6 3 7 4 24 5 25 6 2 7 1 8 3 9 8 10 9 11 10 12 17 13
REMARK SMILES IDX 11 14 16 15 12 16 13 17 14 18 15 19 18 20 19 21 23 22 20 23
REMARK SMILES IDX 22 24 21 25
REMARK H PARENT
ROOT
ATOM      1  C   UNL     1      25.135 -55.760  52.657  1.00  0.00     0.036 A 
ATOM      2  C   UNL     1      25.811 -55.173  51.571  1.00  0.00     0.026 A 
ATOM      3  C   UNL     1      26.427 -53.916  51.660  1.00  0.00     0.011 A 
ATOM      4  C   UNL     1      26.375 -53.189  52.848  1.00  0.00    -0.017 A 
ATOM      5  C   UNL     1      25.710 -53.740  53.942  1.00  0.00     0.011 A 
ATOM      6  C   UNL     1      25.098 -54.998  53.839  1.00  0.00     0.026 A 
ENDROOT
BRANCH   1   7
ATOM      7  N   UNL     1      24.498 -57.003  52.553  1.00  0.00    -0.378 N 
ATOM      8  C   UNL     1      23.061 -57.041  52.278  1.00  0.00     0.143 C 
ATOM      9  C   UNL     1      25.007 -58.124  53.344  1.00  0.00     0.143 C 
ENDBRANCH   1   7
BRANCH   4  10
ATOM     10  C   UNL     1      27.003 -51.845  52.941  1.00  0.00    -0.004 C 
ATOM     11  C   UNL     1      28.297 -51.707  53.362  1.00  0.00    -0.017 C 
ATOM     12  C   UNL     1      29.115 -52.864  53.733  1.00  0.00     0.015 C 
ATOM     13  C   UNL     1      28.938 -50.393  53.465  1.00  0.00     0.015 C 
ATOM     14  C   UNL     1      30.384 -52.751  54.148  1.00  0.00     0.079 C 
ATOM     15  C   UNL     1      30.205 -50.237  53.874  1.00  0.00     0.079 C 
ATOM     16  C   UNL     1      31.053 -51.414  54.258  1.00  0.00     0.199 C 
ATOM     17  N   UNL     1      32.286 -51.283  54.658  1.00  0.00    -0.235 N 
ATOM     18  C   UNL     1      33.101 -52.441  55.146  1.00  0.00     0.433 C 
ATOM     19  C   UNL     1      32.994 -49.963  54.665  1.00  0.00     0.433 C 
BRANCH  10  20
ATOM     20  C   UNL     1      26.191 -50.656  52.569  1.00  0.00    -0.017 A 
ATOM     21  C   UNL     1      26.239 -50.150  51.263  1.00  0.00     0.009 A 
ATOM     22  C   UNL     1      25.376 -50.030  53.520  1.00  0.00     0.009 A 
ATOM     23  C   UNL     1      25.471 -49.038  50.912  1.00  0.00     0.001 A 
ATOM     24  C   UNL     1      24.611 -48.918  53.167  1.00  0.00     0.001 A 
ATOM     25  C   UNL     1      24.657 -48.424  51.864  1.00  0.00     0.000 A 
ENDBRANCH  10  20
ENDBRANCH   4  10
TORSDOF 3
ENDMDL
MODEL 16
REMARK VINA RESULT:    -6.108      4.915      8.581
REMARK INTER + INTRA:          -7.940
REMARK INTER:                  -6.927
REMARK INTRA:                  -1.012
REMARK UNBOUND:                -0.761
REMARK SMILES CN(C)c1ccc(C(=C2C=CC(=[N+](C)C)C=C2)c2ccccc2)cc1
REMARK SMILES IDX 4 1 5 2 6 3 7 4 24 5 25 6 2 7 1 8 3 9 8 10 9 11 10 12 17 13
REMARK SMILES IDX 11 14 16 15 12 16 13 17 14 18 15 19 18 20 19 21 23 22 20 23
REMARK SMILES IDX 22 24 21 25
REMARK H PARENT
ROOT
ATOM      1  C   UNL     1      28.778 -48.905  55.132  1.00  0.00     0.036 A 
ATOM      2  C   UNL     1      29.122 -49.258  53.814  1.00  0.00     0.026 A 
ATOM      3  C   UNL     1      28.451 -50.266  53.106  1.00  0.00     0.011 A 
ATOM      4  C   UNL     1      27.410 -50.973  53.705  1.00  0.00    -0.017 A 
ATOM      5  C   UNL     1      27.045 -50.651  55.011  1.00  0.00     0.011 A 
ATOM      6  C   UNL     1      27.726 -49.640  55.707  1.00  0.00     0.026 A 
ENDROOT
BRANCH   1   7
ATOM      7  N   UNL     1      29.469 -47.916  55.842  1.00  0.00    -0.378 N 
ATOM      8  C   UNL     1      28.743 -46.727  56.289  1.00  0.00     0.143 C 
ATOM      9  C   UNL     1      30.888 -47.702  55.552  1.00  0.00     0.143 C 
ENDBRANCH   1   7
BRANCH   4  10
ATOM     10  C   UNL     1      26.711 -52.061  52.971  1.00  0.00    -0.004 C 
ATOM     11  C   UNL     1      27.258 -53.312  52.893  1.00  0.00    -0.017 C 
ATOM     12  C   UNL     1      28.541 -53.634  53.522  1.00  0.00     0.015 C 
ATOM     13  C   UNL     1      26.591 -54.401  52.174  1.00  0.00     0.015 C 
ATOM     14  C   UNL     1      29.095 -54.852  53.457  1.00  0.00     0.079 C 
ATOM     15  C   UNL     1      27.111 -55.634  52.087  1.00  0.00     0.079 C 
ATOM     16  C   UNL     1      28.424 -55.976  52.725  1.00  0.00     0.199 C 
ATOM     17  N   UNL     1      28.945 -57.168  52.651  1.00  0.00    -0.235 N 
ATOM     18  C   UNL     1      30.304 -57.487  53.192  1.00  0.00     0.433 C 
ATOM     19  C   UNL     1      28.230 -58.322  52.018  1.00  0.00     0.433 C 
BRANCH  10  20
ATOM     20  C   UNL     1      25.407 -51.757  52.326  1.00  0.00    -0.017 A 
ATOM     21  C   UNL     1      25.348 -50.889  51.227  1.00  0.00     0.009 A 
ATOM     22  C   UNL     1      24.226 -52.332  52.813  1.00  0.00     0.009 A 
ATOM     23  C   UNL     1      24.124 -50.610  50.617  1.00  0.00     0.001 A 
ATOM     24  C   UNL     1      23.003 -52.049  52.202  1.00  0.00     0.001 A 
ATOM     25  C   UNL     1      22.954 -51.191  51.104  1.00  0.00     0.000 A 
ENDBRANCH  10  20
ENDBRANCH   4  10
TORSDOF 3
ENDMDL
MODEL 17
REMARK VINA RESULT:    -6.106      2.656      3.608
REMARK INTER + INTRA:          -7.937
REMARK INTER:                  -6.914
REMARK INTRA:                  -1.023
REMARK UNBOUND:                -0.761
REMARK SMILES CN(C)c1ccc(C(=C2C=CC(=[N+](C)C)C=C2)c2ccccc2)cc1
REMARK SMILES IDX 4 1 5 2 6 3 7 4 24 5 25 6 2 7 1 8 3 9 8 10 9 11 10 12 17 13
REMARK SMILES IDX 11 14 16 15 12 16 13 17 14 18 15 19 18 20 19 21 23 22 20 23
REMARK SMILES IDX 22 24 21 25
REMARK H PARENT
ROOT
ATOM      1  C   UNL     1      29.245 -49.999  54.764  1.00  0.00     0.036 A 
ATOM      2  C   UNL     1      28.073 -50.204  55.515  1.00  0.00     0.026 A 
ATOM      3  C   UNL     1      26.820 -50.402  54.916  1.00  0.00     0.011 A 
ATOM      4  C   UNL     1      26.695 -50.389  53.528  1.00  0.00    -0.017 A 
ATOM      5  C   UNL     1      27.836 -50.185  52.754  1.00  0.00     0.011 A 
ATOM      6  C   UNL     1      29.082 -49.987  53.367  1.00  0.00     0.026 A 
ENDROOT
BRANCH   1   7
ATOM      7  N   UNL     1      30.487 -49.774  55.370  1.00  0.00    -0.378 N 
ATOM      8  C   UNL     1      31.618 -49.366  54.535  1.00  0.00     0.143 C 
ATOM      9  C   UNL     1      30.844 -50.552  56.558  1.00  0.00     0.143 C 
ENDBRANCH   1   7
BRANCH   4  10
ATOM     10  C   UNL     1      25.367 -50.571  52.885  1.00  0.00    -0.004 C 
ATOM     11  C   UNL     1      24.520 -49.511  52.720  1.00  0.00    -0.017 C 
ATOM     12  C   UNL     1      24.880 -48.161  53.161  1.00  0.00     0.015 C 
ATOM     13  C   UNL     1      23.205 -49.664  52.091  1.00  0.00     0.015 C 
ATOM     14  C   UNL     1      24.064 -47.108  53.009  1.00  0.00     0.079 C 
ATOM     15  C   UNL     1      22.361 -48.637  51.919  1.00  0.00     0.079 C 
ATOM     16  C   UNL     1      22.717 -47.250  52.368  1.00  0.00     0.199 C 
ATOM     17  N   UNL     1      21.910 -46.239  52.210  1.00  0.00    -0.235 N 
ATOM     18  C   UNL     1      22.213 -44.877  52.753  1.00  0.00     0.433 C 
ATOM     19  C   UNL     1      20.611 -46.352  51.473  1.00  0.00     0.433 C 
BRANCH  10  20
ATOM     20  C   UNL     1      24.982 -51.933  52.428  1.00  0.00    -0.017 A 
ATOM     21  C   UNL     1      24.003 -52.659  53.119  1.00  0.00     0.009 A 
ATOM     22  C   UNL     1      25.598 -52.502  51.306  1.00  0.00     0.009 A 
ATOM     23  C   UNL     1      23.638 -53.935  52.685  1.00  0.00     0.001 A 
ATOM     24  C   UNL     1      25.231 -53.778  50.875  1.00  0.00     0.001 A 
ATOM     25  C   UNL     1      24.251 -54.492  51.564  1.00  0.00     0.000 A 
ENDBRANCH  10  20
ENDBRANCH   4  10
TORSDOF 3
ENDMDL
MODEL 18
REMARK VINA RESULT:    -6.088      2.340      7.589
REMARK INTER + INTRA:          -7.916
REMARK INTER:                  -6.722
REMARK INTRA:                  -1.194
REMARK UNBOUND:                -0.761
REMARK SMILES CN(C)c1ccc(C(=C2C=CC(=[N+](C)C)C=C2)c2ccccc2)cc1
REMARK SMILES IDX 4 1 5 2 6 3 7 4 24 5 25 6 2 7 1 8 3 9 8 10 9 11 10 12 17 13
REMARK SMILES IDX 11 14 16 15 12 16 13 17 14 18 15 19 18 20 19 21 23 22 20 23
REMARK SMILES IDX 22 24 21 25
REMARK H PARENT
ROOT
ATOM      1  C   UNL     1      20.292 -44.247  52.124  1.00  0.00     0.036 A 
ATOM      2  C   UNL     1      21.557 -44.224  51.508  1.00  0.00     0.026 A 
ATOM      3  C   UNL     1      22.633 -44.996  51.971  1.00  0.00     0.011 A 
ATOM      4  C   UNL     1      22.481 -45.816  53.087  1.00  0.00    -0.017 A 
ATOM      5  C   UNL     1      21.242 -45.860  53.724  1.00  0.00     0.011 A 
ATOM      6  C   UNL     1      20.175 -45.082  53.250  1.00  0.00     0.026 A 
ENDROOT
BRANCH   1   7
ATOM      7  N   UNL     1      19.230 -43.453  51.673  1.00  0.00    -0.378 N 
ATOM      8  C   UNL     1      18.593 -42.526  52.609  1.00  0.00     0.143 C 
ATOM      9  C   UNL     1      18.351 -43.979  50.627  1.00  0.00     0.143 C 
ENDBRANCH   1   7
BRANCH   4  10
ATOM     10  C   UNL     1      23.624 -46.617  53.600  1.00  0.00    -0.004 C 
ATOM     11  C   UNL     1      23.793 -47.918  53.215  1.00  0.00    -0.017 C 
ATOM     12  C   UNL     1      22.867 -48.574  52.289  1.00  0.00     0.015 C 
ATOM     13  C   UNL     1      24.910 -48.729  53.708  1.00  0.00     0.015 C 
ATOM     14  C   UNL     1      23.014 -49.848  51.899  1.00  0.00     0.079 C 
ATOM     15  C   UNL     1      25.093 -50.006  53.342  1.00  0.00     0.079 C 
ATOM     16  C   UNL     1      24.152 -50.690  52.395  1.00  0.00     0.199 C 
ATOM     17  N   UNL     1      24.312 -51.930  52.028  1.00  0.00    -0.235 N 
ATOM     18  C   UNL     1      23.318 -52.650  51.171  1.00  0.00     0.433 C 
ATOM     19  C   UNL     1      25.505 -52.741  52.431  1.00  0.00     0.433 C 
BRANCH  10  20
ATOM     20  C   UNL     1      24.577 -45.970  54.541  1.00  0.00    -0.017 A 
ATOM     21  C   UNL     1      25.735 -45.347  54.056  1.00  0.00     0.009 A 
ATOM     22  C   UNL     1      24.328 -45.981  55.919  1.00  0.00     0.009 A 
ATOM     23  C   UNL     1      26.625 -44.734  54.939  1.00  0.00     0.001 A 
ATOM     24  C   UNL     1      25.220 -45.369  56.800  1.00  0.00     0.001 A 
ATOM     25  C   UNL     1      26.367 -44.745  56.309  1.00  0.00     0.000 A 
ENDBRANCH  10  20
ENDBRANCH   4  10
TORSDOF 3
ENDMDL
MODEL 19
REMARK VINA RESULT:    -6.083      4.729      9.030
REMARK INTER + INTRA:          -7.911
REMARK INTER:                  -6.791
REMARK INTRA:                  -1.120
REMARK UNBOUND:                -0.761
REMARK SMILES CN(C)c1ccc(C(=C2C=CC(=[N+](C)C)C=C2)c2ccccc2)cc1
REMARK SMILES IDX 4 1 5 2 6 3 7 4 24 5 25 6 2 7 1 8 3 9 8 10 9 11 10 12 17 13
REMARK SMILES IDX 11 14 16 15 12 16 13 17 14 18 15 19 18 20 19 21 23 22 20 23
REMARK SMILES IDX 22 24 21 25
REMARK H PARENT
ROOT
ATOM      1  C   UNL     1      24.821 -49.427  52.042  1.00  0.00     0.036 A 
ATOM      2  C   UNL     1      25.057 -49.770  53.387  1.00  0.00     0.026 A 
ATOM      3  C   UNL     1      25.964 -50.774  53.758  1.00  0.00     0.011 A 
ATOM      4  C   UNL     1      26.663 -51.486  52.785  1.00  0.00    -0.017 A 
ATOM      5  C   UNL     1      26.449 -51.174  51.443  1.00  0.00     0.011 A 
ATOM      6  C   UNL     1      25.539 -50.168  51.086  1.00  0.00     0.026 A 
ENDROOT
BRANCH   1   7
ATOM      7  N   UNL     1      23.894 -48.443  51.678  1.00  0.00    -0.378 N 
ATOM      8  C   UNL     1      24.270 -47.034  51.808  1.00  0.00     0.143 C 
ATOM      9  C   UNL     1      22.467 -48.721  51.846  1.00  0.00     0.143 C 
ENDBRANCH   1   7
BRANCH   4  10
ATOM     10  C   UNL     1      27.605 -52.569  53.169  1.00  0.00    -0.004 C 
ATOM     11  C   UNL     1      28.873 -52.275  53.587  1.00  0.00    -0.017 C 
ATOM     12  C   UNL     1      29.355 -50.894  53.676  1.00  0.00     0.015 C 
ATOM     13  C   UNL     1      29.823 -53.324  53.969  1.00  0.00     0.015 C 
ATOM     14  C   UNL     1      30.594 -50.584  54.082  1.00  0.00     0.079 C 
ATOM     15  C   UNL     1      31.070 -53.056  54.382  1.00  0.00     0.079 C 
ATOM     16  C   UNL     1      31.575 -51.646  54.477  1.00  0.00     0.199 C 
ATOM     17  N   UNL     1      32.784 -51.366  54.875  1.00  0.00    -0.235 N 
ATOM     18  C   UNL     1      33.329 -49.971  54.868  1.00  0.00     0.433 C 
ATOM     19  C   UNL     1      33.731 -52.412  55.375  1.00  0.00     0.433 C 
BRANCH  10  20
ATOM     20  C   UNL     1      27.137 -53.978  53.088  1.00  0.00    -0.017 A 
ATOM     21  C   UNL     1      26.306 -54.505  54.085  1.00  0.00     0.009 A 
ATOM     22  C   UNL     1      27.526 -54.792  52.016  1.00  0.00     0.009 A 
ATOM     23  C   UNL     1      25.861 -55.826  54.004  1.00  0.00     0.001 A 
ATOM     24  C   UNL     1      27.081 -56.112  51.938  1.00  0.00     0.001 A 
ATOM     25  C   UNL     1      26.248 -56.627  52.931  1.00  0.00     0.000 A 
ENDBRANCH  10  20
ENDBRANCH   4  10
TORSDOF 3
ENDMDL
MODEL 20
REMARK VINA RESULT:    -6.005      4.284      9.070
REMARK INTER + INTRA:          -7.819
REMARK INTER:                  -6.718
REMARK INTRA:                  -1.101
REMARK UNBOUND:                -0.761
REMARK SMILES CN(C)c1ccc(C(=C2C=CC(=[N+](C)C)C=C2)c2ccccc2)cc1
REMARK SMILES IDX 4 1 5 2 6 3 7 4 24 5 25 6 2 7 1 8 3 9 8 10 9 11 10 12 17 13
REMARK SMILES IDX 11 14 16 15 12 16 13 17 14 18 15 19 18 20 19 21 23 22 20 23
REMARK SMILES IDX 22 24 21 25
REMARK H PARENT
ROOT
ATOM      1  C   UNL     1      34.680 -49.532  54.089  1.00  0.00     0.036 A 
ATOM      2  C   UNL     1      33.840 -49.295  52.985  1.00  0.00     0.026 A 
ATOM      3  C   UNL     1      32.878 -48.274  52.978  1.00  0.00     0.011 A 
ATOM      4  C   UNL     1      32.714 -47.455  54.093  1.00  0.00    -0.017 A 
ATOM      5  C   UNL     1      33.527 -47.665  55.205  1.00  0.00     0.011 A 
ATOM      6  C   UNL     1      34.484 -48.690  55.198  1.00  0.00     0.026 A 
ENDROOT
BRANCH   1   7
ATOM      7  N   UNL     1      35.619 -50.571  54.100  1.00  0.00    -0.378 N 
ATOM      8  C   UNL     1      35.663 -51.497  52.966  1.00  0.00     0.143 C 
ATOM      9  C   UNL     1      36.021 -51.146  55.384  1.00  0.00     0.143 C 
ENDBRANCH   1   7
BRANCH   4  10
ATOM     10  C   UNL     1      31.679 -46.388  54.103  1.00  0.00    -0.004 C 
ATOM     11  C   UNL     1      30.354 -46.702  54.228  1.00  0.00    -0.017 C 
ATOM     12  C   UNL     1      29.899 -48.089  54.357  1.00  0.00     0.015 C 
ATOM     13  C   UNL     1      29.314 -45.669  54.238  1.00  0.00     0.015 C 
ATOM     14  C   UNL     1      28.606 -48.418  54.479  1.00  0.00     0.079 C 
ATOM     15  C   UNL     1      28.010 -45.957  54.360  1.00  0.00     0.079 C 
ATOM     16  C   UNL     1      27.531 -47.373  54.492  1.00  0.00     0.199 C 
ATOM     17  N   UNL     1      26.269 -47.673  54.611  1.00  0.00    -0.235 N 
ATOM     18  C   UNL     1      25.777 -49.087  54.634  1.00  0.00     0.433 C 
ATOM     19  C   UNL     1      25.202 -46.630  54.736  1.00  0.00     0.433 C 
BRANCH  10  20
ATOM     20  C   UNL     1      32.118 -44.973  53.974  1.00  0.00    -0.017 A 
ATOM     21  C   UNL     1      32.237 -44.164  55.112  1.00  0.00     0.009 A 
ATOM     22  C   UNL     1      32.412 -44.436  52.714  1.00  0.00     0.009 A 
ATOM     23  C   UNL     1      32.656 -42.838  54.990  1.00  0.00     0.001 A 
ATOM     24  C   UNL     1      32.829 -43.110  52.596  1.00  0.00     0.001 A 
ATOM     25  C   UNL     1      32.953 -42.313  53.733  1.00  0.00     0.000 A 
ENDBRANCH  10  20
ENDBRANCH   4  10
TORSDOF 3
ENDMDL
