REMARK SMILES CN(C)c1ccc(C(=C2C=CC(=[N+](C)C)C=C2)c2ccccc2)cc1
REMARK SMILES IDX 8 1 9 2 10 3 11 4 12 5 13 6 14 7 15 8 16 9 17 10 7 11 4 12
REMARK SMILES IDX 5 13 25 14 6 15 24 16 2 17 1 18 3 19 18 20 19 21 23 22 20 23
REMARK SMILES IDX 22 24 21 25
REMARK H PARENT
REMARK Flexibility Score: inf
ROOT
ATOM      1  C   UNL     1      -0.455  -0.940  -0.067  1.00  0.00    -0.004 C 
ATOM      2  C   UNL     1      -1.318   0.096   0.121  1.00  0.00    -0.017 C 
ATOM      3  C   UNL     1      -2.640  -0.104   0.770  1.00  0.00     0.015 C 
ATOM      4  C   UNL     1      -3.488   0.911   0.957  1.00  0.00     0.079 C 
ATOM      5  C   UNL     1      -3.154   2.299   0.520  1.00  0.00     0.199 C 
ATOM      6  N   UNL     1      -3.994   3.306   0.703  1.00  0.00    -0.235 N 
ATOM      7  C   UNL     1      -5.304   3.102   1.346  1.00  0.00     0.433 C 
ATOM      8  C   UNL     1      -3.653   4.674   0.270  1.00  0.00     0.433 C 
ATOM      9  C   UNL     1      -1.825   2.493  -0.132  1.00  0.00     0.079 C 
ATOM     10  C   UNL     1      -0.979   1.477  -0.314  1.00  0.00     0.015 C 
ENDROOT
BRANCH   1  11
ATOM     11  C   UNL     1       0.941  -0.725  -0.522  1.00  0.00    -0.017 A 
ATOM     12  C   UNL     1       3.624  -0.388  -1.356  1.00  0.00     0.036 A 
ATOM     13  C   UNL     1       2.725  -1.173  -2.108  1.00  0.00     0.026 A 
ATOM     14  C   UNL     1       3.153   0.216  -0.171  1.00  0.00     0.026 A 
ATOM     15  C   UNL     1       1.402  -1.343  -1.691  1.00  0.00     0.011 A 
ATOM     16  C   UNL     1       1.830   0.043   0.243  1.00  0.00     0.011 A 
BRANCH  12  17
ATOM     17  N   UNL     1       4.998  -0.209  -1.788  1.00  0.00    -0.378 N 
ATOM     18  C   UNL     1       5.794   0.922  -1.296  1.00  0.00     0.143 C 
ATOM     19  C   UNL     1       5.616  -1.156  -2.725  1.00  0.00     0.143 C 
ENDBRANCH  12  17
ENDBRANCH   1  11
BRANCH   1  20
ATOM     20  C   UNL     1      -0.855  -2.349   0.172  1.00  0.00    -0.017 A 
ATOM     21  C   UNL     1      -1.909  -2.925  -0.558  1.00  0.00     0.009 A 
ATOM     22  C   UNL     1      -0.139  -3.139   1.086  1.00  0.00     0.009 A 
ATOM     23  C   UNL     1      -2.258  -4.263  -0.353  1.00  0.00     0.001 A 
ATOM     24  C   UNL     1      -0.491  -4.477   1.288  1.00  0.00     0.001 A 
ATOM     25  C   UNL     1      -1.551  -5.038   0.571  1.00  0.00     0.000 A 
ENDBRANCH   1  20
TORSDOF 3
