REMARK SMILES CN(C)c1ccc(C(=C2C=CC(=[N+](C)C)C=C2)c2ccccc2)cc1
REMARK SMILES IDX 8 1 9 2 10 3 11 4 12 5 13 6 14 7 15 8 16 9 17 10 7 11 4 12
REMARK SMILES IDX 5 13 25 14 6 15 24 16 2 17 1 18 3 19 18 20 19 21 23 22 20 23
REMARK SMILES IDX 22 24 21 25
REMARK H PARENT
REMARK Flexibility Score: inf
ROOT
ATOM      1  C   UNL     1      -0.284   0.017  -0.830  1.00  0.00    -0.004 C 
ATOM      2  C   UNL     1       0.875   0.117  -0.122  1.00  0.00    -0.017 C 
ATOM      3  C   UNL     1       0.880   0.542   1.302  1.00  0.00     0.015 C 
ATOM      4  C   UNL     1       2.015   0.640   1.998  1.00  0.00     0.079 C 
ATOM      5  C   UNL     1       3.340   0.330   1.383  1.00  0.00     0.199 C 
ATOM      6  N   UNL     1       4.467   0.427   2.071  1.00  0.00    -0.235 N 
ATOM      7  C   UNL     1       4.466   0.850   3.483  1.00  0.00     0.433 C 
ATOM      8  C   UNL     1       5.769   0.117   1.453  1.00  0.00     0.433 C 
ATOM      9  C   UNL     1       3.329  -0.095  -0.049  1.00  0.00     0.079 C 
ATOM     10  C   UNL     1       2.191  -0.194  -0.741  1.00  0.00     0.015 C 
ENDROOT
BRANCH   1  11
ATOM     11  C   UNL     1      -1.575   0.517  -0.295  1.00  0.00    -0.017 A 
ATOM     12  C   UNL     1      -4.064   1.476   0.647  1.00  0.00     0.036 A 
ATOM     13  C   UNL     1      -2.964   2.346   0.494  1.00  0.00     0.026 A 
ATOM     14  C   UNL     1      -3.893   0.118   0.306  1.00  0.00     0.026 A 
ATOM     15  C   UNL     1      -1.738   1.872   0.023  1.00  0.00     0.011 A 
ATOM     16  C   UNL     1      -2.665  -0.353  -0.164  1.00  0.00     0.011 A 
BRANCH  12  17
ATOM     17  N   UNL     1      -5.340   1.967   1.137  1.00  0.00    -0.378 N 
ATOM     18  C   UNL     1      -6.577   1.218   0.880  1.00  0.00     0.143 C 
ATOM     19  C   UNL     1      -5.415   3.220   1.898  1.00  0.00     0.143 C 
ENDBRANCH  12  17
ENDBRANCH   1  11
BRANCH   1  20
ATOM     20  C   UNL     1      -0.329  -0.597  -2.180  1.00  0.00    -0.017 A 
ATOM     21  C   UNL     1       0.053  -1.937  -2.367  1.00  0.00     0.009 A 
ATOM     22  C   UNL     1      -0.817   0.139  -3.272  1.00  0.00     0.009 A 
ATOM     23  C   UNL     1      -0.025  -2.520  -3.635  1.00  0.00     0.001 A 
ATOM     24  C   UNL     1      -0.894  -0.449  -4.538  1.00  0.00     0.001 A 
ATOM     25  C   UNL     1      -0.496  -1.776  -4.721  1.00  0.00     0.000 A 
ENDBRANCH   1  20
TORSDOF 3
