MODEL 1
REMARK VINA RESULT:    -7.621      0.000      0.000
REMARK INTER + INTRA:         -10.166
REMARK INTER:                  -8.958
REMARK INTRA:                  -1.209
REMARK UNBOUND:                -1.209
REMARK SMILES CN(C)c1ccc(C(=C2C=CC(=[N+](C)C)C=C2)c2ccccc2)cc1
REMARK SMILES IDX 8 1 9 2 10 3 11 4 12 5 13 6 14 7 15 8 16 9 17 10 7 11 4 12
REMARK SMILES IDX 5 13 25 14 6 15 24 16 2 17 1 18 3 19 18 20 19 21 23 22 20 23
REMARK SMILES IDX 22 24 21 25
REMARK H PARENT
REMARK Flexibility Score: inf
ROOT
ATOM      1  C   UNL     1      28.348  -7.484 -20.588  1.00  0.00    -0.004 C 
ATOM      2  C   UNL     1      28.009  -6.686 -21.638  1.00  0.00    -0.017 C 
ATOM      3  C   UNL     1      28.985  -6.356 -22.708  1.00  0.00     0.015 C 
ATOM      4  C   UNL     1      28.655  -5.574 -23.739  1.00  0.00     0.079 C 
ATOM      5  C   UNL     1      27.288  -4.988 -23.871  1.00  0.00     0.199 C 
ATOM      6  N   UNL     1      26.958  -4.212 -24.891  1.00  0.00    -0.235 N 
ATOM      7  C   UNL     1      27.931  -3.887 -25.949  1.00  0.00     0.433 C 
ATOM      8  C   UNL     1      25.605  -3.640 -25.011  1.00  0.00     0.433 C 
ATOM      9  C   UNL     1      26.311  -5.322 -22.791  1.00  0.00     0.079 C 
ATOM     10  C   UNL     1      26.645  -6.106 -21.763  1.00  0.00     0.015 C 
ENDROOT
BRANCH   1  11
ATOM     11  C   UNL     1      29.751  -7.900 -20.341  1.00  0.00    -0.017 A 
ATOM     12  C   UNL     1      32.399  -8.737 -19.803  1.00  0.00     0.036 A 
ATOM     13  C   UNL     1      31.932  -7.482 -19.359  1.00  0.00     0.026 A 
ATOM     14  C   UNL     1      31.506  -9.569 -20.512  1.00  0.00     0.026 A 
ATOM     15  C   UNL     1      30.623  -7.074 -19.620  1.00  0.00     0.011 A 
ATOM     16  C   UNL     1      30.197  -9.156 -20.772  1.00  0.00     0.011 A 
BRANCH  12  17
ATOM     17  N   UNL     1      33.760  -9.164 -19.533  1.00  0.00    -0.378 N 
ATOM     18  C   UNL     1      34.846  -8.180 -19.434  1.00  0.00     0.143 C 
ATOM     19  C   UNL     1      34.075 -10.587 -19.354  1.00  0.00     0.143 C 
ENDBRANCH  12  17
ENDBRANCH   1  11
BRANCH   1  20
ATOM     20  C   UNL     1      27.336  -7.988 -19.626  1.00  0.00    -0.017 A 
ATOM     21  C   UNL     1      26.418  -8.981 -20.011  1.00  0.00     0.009 A 
ATOM     22  C   UNL     1      27.332  -7.521 -18.302  1.00  0.00     0.009 A 
ATOM     23  C   UNL     1      25.491  -9.476 -19.089  1.00  0.00     0.001 A 
ATOM     24  C   UNL     1      26.403  -8.020 -17.384  1.00  0.00     0.001 A 
ATOM     25  C   UNL     1      25.481  -8.994 -17.777  1.00  0.00     0.000 A 
ENDBRANCH   1  20
TORSDOF 3
ENDMDL
MODEL 2
REMARK VINA RESULT:    -7.476      1.369      1.911
REMARK INTER + INTRA:          -9.996
REMARK INTER:                  -8.793
REMARK INTRA:                  -1.203
REMARK UNBOUND:                -1.209
REMARK SMILES CN(C)c1ccc(C(=C2C=CC(=[N+](C)C)C=C2)c2ccccc2)cc1
REMARK SMILES IDX 8 1 9 2 10 3 11 4 12 5 13 6 14 7 15 8 16 9 17 10 7 11 4 12
REMARK SMILES IDX 5 13 25 14 6 15 24 16 2 17 1 18 3 19 18 20 19 21 23 22 20 23
REMARK SMILES IDX 22 24 21 25
REMARK H PARENT
REMARK Flexibility Score: inf
ROOT
ATOM      1  C   UNL     1      29.314  -7.782 -20.739  1.00  0.00    -0.004 C 
ATOM      2  C   UNL     1      29.047  -7.284 -21.978  1.00  0.00    -0.017 C 
ATOM      3  C   UNL     1      30.135  -6.992 -22.947  1.00  0.00     0.015 C 
ATOM      4  C   UNL     1      29.875  -6.505 -24.163  1.00  0.00     0.079 C 
ATOM      5  C   UNL     1      28.479  -6.225 -24.613  1.00  0.00     0.199 C 
ATOM      6  N   UNL     1      28.219  -5.741 -25.817  1.00  0.00    -0.235 N 
ATOM      7  C   UNL     1      29.302  -5.453 -26.775  1.00  0.00     0.433 C 
ATOM      8  C   UNL     1      26.836  -5.470 -26.250  1.00  0.00     0.433 C 
ATOM      9  C   UNL     1      27.390  -6.519 -23.633  1.00  0.00     0.079 C 
ATOM     10  C   UNL     1      27.654  -7.009 -22.419  1.00  0.00     0.015 C 
ENDROOT
BRANCH   1  11
ATOM     11  C   UNL     1      30.699  -7.868 -20.210  1.00  0.00    -0.017 A 
ATOM     12  C   UNL     1      33.363  -7.986 -19.266  1.00  0.00     0.036 A 
ATOM     13  C   UNL     1      32.823  -9.033 -20.043  1.00  0.00     0.026 A 
ATOM     14  C   UNL     1      32.542  -6.874 -18.983  1.00  0.00     0.026 A 
ATOM     15  C   UNL     1      31.510  -8.970 -20.513  1.00  0.00     0.011 A 
ATOM     16  C   UNL     1      31.229  -6.815 -19.455  1.00  0.00     0.011 A 
BRANCH  12  17
ATOM     17  N   UNL     1      34.728  -8.050 -18.776  1.00  0.00    -0.378 N 
ATOM     18  C   UNL     1      35.379  -9.346 -18.545  1.00  0.00     0.143 C 
ATOM     19  C   UNL     1      35.481  -6.820 -18.504  1.00  0.00     0.143 C 
ENDBRANCH  12  17
ENDBRANCH   1  11
BRANCH   1  20
ATOM     20  C   UNL     1      28.239  -8.268 -19.839  1.00  0.00    -0.017 A 
ATOM     21  C   UNL     1      27.723  -9.568 -19.982  1.00  0.00     0.009 A 
ATOM     22  C   UNL     1      27.774  -7.453 -18.794  1.00  0.00     0.009 A 
ATOM     23  C   UNL     1      26.735 -10.032 -19.110  1.00  0.00     0.001 A 
ATOM     24  C   UNL     1      26.786  -7.923 -17.923  1.00  0.00     0.001 A 
ATOM     25  C   UNL     1      26.264  -9.210 -18.082  1.00  0.00     0.000 A 
ENDBRANCH   1  20
TORSDOF 3
ENDMDL
MODEL 3
REMARK VINA RESULT:    -7.347      1.769      6.844
REMARK INTER + INTRA:          -9.844
REMARK INTER:                  -8.599
REMARK INTRA:                  -1.246
REMARK UNBOUND:                -1.209
REMARK SMILES CN(C)c1ccc(C(=C2C=CC(=[N+](C)C)C=C2)c2ccccc2)cc1
REMARK SMILES IDX 8 1 9 2 10 3 11 4 12 5 13 6 14 7 15 8 16 9 17 10 7 11 4 12
REMARK SMILES IDX 5 13 25 14 6 15 24 16 2 17 1 18 3 19 18 20 19 21 23 22 20 23
REMARK SMILES IDX 22 24 21 25
REMARK H PARENT
REMARK Flexibility Score: inf
ROOT
ATOM      1  C   UNL     1      30.012  -7.798 -21.577  1.00  0.00    -0.004 C 
ATOM      2  C   UNL     1      31.333  -7.759 -21.246  1.00  0.00    -0.017 C 
ATOM      3  C   UNL     1      32.306  -6.959 -22.034  1.00  0.00     0.015 C 
ATOM      4  C   UNL     1      33.601  -6.919 -21.712  1.00  0.00     0.079 C 
ATOM      5  C   UNL     1      34.141  -7.677 -20.543  1.00  0.00     0.199 C 
ATOM      6  N   UNL     1      35.424  -7.639 -20.222  1.00  0.00    -0.235 N 
ATOM      7  C   UNL     1      36.386  -6.845 -21.007  1.00  0.00     0.433 C 
ATOM      8  C   UNL     1      35.945  -8.391 -19.065  1.00  0.00     0.433 C 
ATOM      9  C   UNL     1      33.158  -8.480 -19.756  1.00  0.00     0.079 C 
ATOM     10  C   UNL     1      31.863  -8.516 -20.081  1.00  0.00     0.015 C 
ENDROOT
BRANCH   1  11
ATOM     11  C   UNL     1      29.504  -7.220 -22.846  1.00  0.00    -0.017 A 
ATOM     12  C   UNL     1      28.463  -6.154 -25.251  1.00  0.00     0.036 A 
ATOM     13  C   UNL     1      29.218  -7.346 -25.254  1.00  0.00     0.026 A 
ATOM     14  C   UNL     1      28.231  -5.515 -24.015  1.00  0.00     0.026 A 
ATOM     15  C   UNL     1      29.725  -7.874 -24.066  1.00  0.00     0.011 A 
ATOM     16  C   UNL     1      28.742  -6.045 -22.828  1.00  0.00     0.011 A 
BRANCH  12  17
ATOM     17  N   UNL     1      27.934  -5.603 -26.486  1.00  0.00    -0.378 N 
ATOM     18  C   UNL     1      28.744  -5.603 -27.711  1.00  0.00     0.143 C 
ATOM     19  C   UNL     1      26.580  -5.036 -26.531  1.00  0.00     0.143 C 
ENDBRANCH  12  17
ENDBRANCH   1  11
BRANCH   1  20
ATOM     20  C   UNL     1      28.999  -8.421 -20.690  1.00  0.00    -0.017 A 
ATOM     21  C   UNL     1      28.485  -7.714 -19.589  1.00  0.00     0.009 A 
ATOM     22  C   UNL     1      28.497  -9.699 -20.984  1.00  0.00     0.009 A 
ATOM     23  C   UNL     1      27.504  -8.293 -18.777  1.00  0.00     0.001 A 
ATOM     24  C   UNL     1      27.516 -10.273 -20.170  1.00  0.00     0.001 A 
ATOM     25  C   UNL     1      27.021  -9.573 -19.066  1.00  0.00     0.000 A 
ENDBRANCH   1  20
TORSDOF 3
ENDMDL
MODEL 4
REMARK VINA RESULT:    -6.835      2.148      3.034
REMARK INTER + INTRA:          -9.243
REMARK INTER:                  -8.050
REMARK INTRA:                  -1.193
REMARK UNBOUND:                -1.209
REMARK SMILES CN(C)c1ccc(C(=C2C=CC(=[N+](C)C)C=C2)c2ccccc2)cc1
REMARK SMILES IDX 8 1 9 2 10 3 11 4 12 5 13 6 14 7 15 8 16 9 17 10 7 11 4 12
REMARK SMILES IDX 5 13 25 14 6 15 24 16 2 17 1 18 3 19 18 20 19 21 23 22 20 23
REMARK SMILES IDX 22 24 21 25
REMARK H PARENT
REMARK Flexibility Score: inf
ROOT
ATOM      1  C   UNL     1      30.916  -7.909 -21.122  1.00  0.00    -0.004 C 
ATOM      2  C   UNL     1      30.937  -7.185 -22.275  1.00  0.00    -0.017 C 
ATOM      3  C   UNL     1      32.216  -6.785 -22.917  1.00  0.00     0.015 C 
ATOM      4  C   UNL     1      32.239  -6.075 -24.048  1.00  0.00     0.079 C 
ATOM      5  C   UNL     1      30.981  -5.644 -24.727  1.00  0.00     0.199 C 
ATOM      6  N   UNL     1      31.001  -4.940 -25.848  1.00  0.00    -0.235 N 
ATOM      7  C   UNL     1      32.273  -4.545 -26.480  1.00  0.00     0.433 C 
ATOM      8  C   UNL     1      29.752  -4.521 -26.510  1.00  0.00     0.433 C 
ATOM      9  C   UNL     1      29.698  -6.048 -24.077  1.00  0.00     0.079 C 
ATOM     10  C   UNL     1      29.680  -6.760 -22.947  1.00  0.00     0.015 C 
ENDROOT
BRANCH   1  11
ATOM     11  C   UNL     1      32.147  -8.164 -20.334  1.00  0.00    -0.017 A 
ATOM     12  C   UNL     1      34.447  -8.676 -18.769  1.00  0.00     0.036 A 
ATOM     13  C   UNL     1      33.905  -7.376 -18.855  1.00  0.00     0.026 A 
ATOM     14  C   UNL     1      33.805  -9.715 -19.474  1.00  0.00     0.026 A 
ATOM     15  C   UNL     1      32.766  -7.127 -19.623  1.00  0.00     0.011 A 
ATOM     16  C   UNL     1      32.666  -9.462 -20.242  1.00  0.00     0.011 A 
BRANCH  12  17
ATOM     17  N   UNL     1      35.632  -8.937 -17.971  1.00  0.00    -0.378 N 
ATOM     18  C   UNL     1      36.455  -7.829 -17.470  1.00  0.00     0.143 C 
ATOM     19  C   UNL     1      36.027 -10.314 -17.650  1.00  0.00     0.143 C 
ENDBRANCH  12  17
ENDBRANCH   1  11
BRANCH   1  20
ATOM     20  C   UNL     1      29.661  -8.488 -20.582  1.00  0.00    -0.017 A 
ATOM     21  C   UNL     1      29.203  -9.740 -21.029  1.00  0.00     0.009 A 
ATOM     22  C   UNL     1      28.956  -7.818 -19.568  1.00  0.00     0.009 A 
ATOM     23  C   UNL     1      28.039 -10.296 -20.490  1.00  0.00     0.001 A 
ATOM     24  C   UNL     1      27.794  -8.379 -19.032  1.00  0.00     0.001 A 
ATOM     25  C   UNL     1      27.333  -9.615 -19.494  1.00  0.00     0.000 A 
ENDBRANCH   1  20
TORSDOF 3
ENDMDL
MODEL 5
REMARK VINA RESULT:    -6.658      2.454      7.113
REMARK INTER + INTRA:          -9.034
REMARK INTER:                  -7.862
REMARK INTRA:                  -1.172
REMARK UNBOUND:                -1.209
REMARK SMILES CN(C)c1ccc(C(=C2C=CC(=[N+](C)C)C=C2)c2ccccc2)cc1
REMARK SMILES IDX 8 1 9 2 10 3 11 4 12 5 13 6 14 7 15 8 16 9 17 10 7 11 4 12
REMARK SMILES IDX 5 13 25 14 6 15 24 16 2 17 1 18 3 19 18 20 19 21 23 22 20 23
REMARK SMILES IDX 22 24 21 25
REMARK H PARENT
REMARK Flexibility Score: inf
ROOT
ATOM      1  C   UNL     1      30.316  -7.301 -21.771  1.00  0.00    -0.004 C 
ATOM      2  C   UNL     1      31.613  -7.348 -21.359  1.00  0.00    -0.017 C 
ATOM      3  C   UNL     1      31.996  -7.991 -20.075  1.00  0.00     0.015 C 
ATOM      4  C   UNL     1      33.267  -8.038 -19.670  1.00  0.00     0.079 C 
ATOM      5  C   UNL     1      34.371  -7.446 -20.483  1.00  0.00     0.199 C 
ATOM      6  N   UNL     1      35.632  -7.492 -20.083  1.00  0.00    -0.235 N 
ATOM      7  C   UNL     1      36.007  -8.130 -18.808  1.00  0.00     0.433 C 
ATOM      8  C   UNL     1      36.714  -6.905 -20.895  1.00  0.00     0.433 C 
ATOM      9  C   UNL     1      33.980  -6.800 -21.771  1.00  0.00     0.079 C 
ATOM     10  C   UNL     1      32.707  -6.757 -22.174  1.00  0.00     0.015 C 
ENDROOT
BRANCH   1  11
ATOM     11  C   UNL     1      29.196  -7.699 -20.882  1.00  0.00    -0.017 A 
ATOM     12  C   UNL     1      27.114  -8.458 -19.123  1.00  0.00     0.036 A 
ATOM     13  C   UNL     1      27.788  -9.420 -19.904  1.00  0.00     0.026 A 
ATOM     14  C   UNL     1      27.514  -7.110 -19.233  1.00  0.00     0.026 A 
ATOM     15  C   UNL     1      28.820  -9.044 -20.767  1.00  0.00     0.011 A 
ATOM     16  C   UNL     1      28.546  -6.737 -20.098  1.00  0.00     0.011 A 
BRANCH  12  17
ATOM     17  N   UNL     1      26.041  -8.847 -18.225  1.00  0.00    -0.378 N 
ATOM     18  C   UNL     1      25.980  -8.312 -16.858  1.00  0.00     0.143 C 
ATOM     19  C   UNL     1      24.999  -9.780 -18.668  1.00  0.00     0.143 C 
ENDBRANCH  12  17
ENDBRANCH   1  11
BRANCH   1  20
ATOM     20  C   UNL     1      29.940  -6.849 -23.134  1.00  0.00    -0.017 A 
ATOM     21  C   UNL     1      29.663  -7.786 -24.145  1.00  0.00     0.009 A 
ATOM     22  C   UNL     1      29.795  -5.479 -23.405  1.00  0.00     0.009 A 
ATOM     23  C   UNL     1      29.276  -7.354 -25.416  1.00  0.00     0.001 A 
ATOM     24  C   UNL     1      29.406  -5.052 -24.679  1.00  0.00     0.001 A 
ATOM     25  C   UNL     1      29.150  -5.988 -25.685  1.00  0.00     0.000 A 
ENDBRANCH   1  20
TORSDOF 3
ENDMDL
MODEL 6
REMARK VINA RESULT:    -6.538      2.260      6.817
REMARK INTER + INTRA:          -8.894
REMARK INTER:                  -7.674
REMARK INTRA:                  -1.219
REMARK UNBOUND:                -1.209
REMARK SMILES CN(C)c1ccc(C(=C2C=CC(=[N+](C)C)C=C2)c2ccccc2)cc1
REMARK SMILES IDX 8 1 9 2 10 3 11 4 12 5 13 6 14 7 15 8 16 9 17 10 7 11 4 12
REMARK SMILES IDX 5 13 25 14 6 15 24 16 2 17 1 18 3 19 18 20 19 21 23 22 20 23
REMARK SMILES IDX 22 24 21 25
REMARK H PARENT
REMARK Flexibility Score: inf
ROOT
ATOM      1  C   UNL     1      29.652  -7.602 -22.440  1.00  0.00    -0.004 C 
ATOM      2  C   UNL     1      30.809  -7.111 -21.916  1.00  0.00    -0.017 C 
ATOM      3  C   UNL     1      31.385  -5.822 -22.380  1.00  0.00     0.015 C 
ATOM      4  C   UNL     1      32.518  -5.338 -21.867  1.00  0.00     0.079 C 
ATOM      5  C   UNL     1      33.270  -6.066 -20.801  1.00  0.00     0.199 C 
ATOM      6  N   UNL     1      34.394  -5.589 -20.292  1.00  0.00    -0.235 N 
ATOM      7  C   UNL     1      34.961  -4.310 -20.756  1.00  0.00     0.433 C 
ATOM      8  C   UNL     1      35.126  -6.317 -19.239  1.00  0.00     0.433 C 
ATOM      9  C   UNL     1      32.687  -7.362 -20.341  1.00  0.00     0.079 C 
ATOM     10  C   UNL     1      31.552  -7.842 -20.855  1.00  0.00     0.015 C 
ENDROOT
BRANCH   1  11
ATOM     11  C   UNL     1      29.013  -6.995 -23.634  1.00  0.00    -0.017 A 
ATOM     12  C   UNL     1      27.853  -5.781 -25.910  1.00  0.00     0.036 A 
ATOM     13  C   UNL     1      27.378  -5.491 -24.614  1.00  0.00     0.026 A 
ATOM     14  C   UNL     1      28.929  -6.684 -26.040  1.00  0.00     0.026 A 
ATOM     15  C   UNL     1      27.956  -6.086 -23.491  1.00  0.00     0.011 A 
ATOM     16  C   UNL     1      29.504  -7.278 -24.914  1.00  0.00     0.011 A 
BRANCH  12  17
ATOM     17  N   UNL     1      27.253  -5.163 -27.080  1.00  0.00    -0.378 N 
ATOM     18  C   UNL     1      26.023  -4.371 -26.957  1.00  0.00     0.143 C 
ATOM     19  C   UNL     1      27.867  -5.319 -28.404  1.00  0.00     0.143 C 
ENDBRANCH  12  17
ENDBRANCH   1  11
BRANCH   1  20
ATOM     20  C   UNL     1      28.960  -8.775 -21.852  1.00  0.00    -0.017 A 
ATOM     21  C   UNL     1      29.253 -10.075 -22.300  1.00  0.00     0.009 A 
ATOM     22  C   UNL     1      28.052  -8.599 -20.794  1.00  0.00     0.009 A 
ATOM     23  C   UNL     1      28.623 -11.178 -21.717  1.00  0.00     0.001 A 
ATOM     24  C   UNL     1      27.425  -9.706 -20.214  1.00  0.00     0.001 A 
ATOM     25  C   UNL     1      27.707 -10.994 -20.676  1.00  0.00     0.000 A 
ENDBRANCH   1  20
TORSDOF 3
ENDMDL
MODEL 7
REMARK VINA RESULT:    -6.512      2.496      5.752
REMARK INTER + INTRA:          -8.863
REMARK INTER:                  -7.606
REMARK INTRA:                  -1.257
REMARK UNBOUND:                -1.209
REMARK SMILES CN(C)c1ccc(C(=C2C=CC(=[N+](C)C)C=C2)c2ccccc2)cc1
REMARK SMILES IDX 8 1 9 2 10 3 11 4 12 5 13 6 14 7 15 8 16 9 17 10 7 11 4 12
REMARK SMILES IDX 5 13 25 14 6 15 24 16 2 17 1 18 3 19 18 20 19 21 23 22 20 23
REMARK SMILES IDX 22 24 21 25
REMARK H PARENT
REMARK Flexibility Score: inf
ROOT
ATOM      1  C   UNL     1      31.010  -7.451 -21.018  1.00  0.00    -0.004 C 
ATOM      2  C   UNL     1      31.021  -6.796 -22.212  1.00  0.00    -0.017 C 
ATOM      3  C   UNL     1      29.781  -6.218 -22.791  1.00  0.00     0.015 C 
ATOM      4  C   UNL     1      29.789  -5.575 -23.961  1.00  0.00     0.079 C 
ATOM      5  C   UNL     1      31.045  -5.406 -24.752  1.00  0.00     0.199 C 
ATOM      6  N   UNL     1      31.056  -4.770 -25.913  1.00  0.00    -0.235 N 
ATOM      7  C   UNL     1      29.823  -4.198 -26.483  1.00  0.00     0.433 C 
ATOM      8  C   UNL     1      32.302  -4.607 -26.684  1.00  0.00     0.433 C 
ATOM      9  C   UNL     1      32.288  -5.991 -24.166  1.00  0.00     0.079 C 
ATOM     10  C   UNL     1      32.275  -6.631 -22.994  1.00  0.00     0.015 C 
ENDROOT
BRANCH   1  11
ATOM     11  C   UNL     1      29.743  -7.803 -20.328  1.00  0.00    -0.017 A 
ATOM     12  C   UNL     1      27.374  -8.507 -18.953  1.00  0.00     0.036 A 
ATOM     13  C   UNL     1      27.880  -9.322 -19.988  1.00  0.00     0.026 A 
ATOM     14  C   UNL     1      28.087  -7.338 -18.615  1.00  0.00     0.026 A 
ATOM     15  C   UNL     1      29.053  -8.976 -20.661  1.00  0.00     0.011 A 
ATOM     16  C   UNL     1      29.260  -6.995 -19.291  1.00  0.00     0.011 A 
BRANCH  12  17
ATOM     17  N   UNL     1      26.154  -8.865 -18.252  1.00  0.00    -0.378 N 
ATOM     18  C   UNL     1      25.194  -9.801 -18.852  1.00  0.00     0.143 C 
ATOM     19  C   UNL     1      25.859  -8.299 -16.930  1.00  0.00     0.143 C 
ENDBRANCH  12  17
ENDBRANCH   1  11
BRANCH   1  20
ATOM     20  C   UNL     1      32.262  -7.853 -20.331  1.00  0.00    -0.017 A 
ATOM     21  C   UNL     1      33.035  -6.901 -19.643  1.00  0.00     0.009 A 
ATOM     22  C   UNL     1      32.650  -9.202 -20.309  1.00  0.00     0.009 A 
ATOM     23  C   UNL     1      34.195  -7.293 -18.969  1.00  0.00     0.001 A 
ATOM     24  C   UNL     1      33.811  -9.589 -19.632  1.00  0.00     0.001 A 
ATOM     25  C   UNL     1      34.585  -8.636 -18.965  1.00  0.00     0.000 A 
ENDBRANCH   1  20
TORSDOF 3
ENDMDL
MODEL 8
REMARK VINA RESULT:    -6.495      2.517      5.691
REMARK INTER + INTRA:          -8.843
REMARK INTER:                  -7.636
REMARK INTRA:                  -1.207
REMARK UNBOUND:                -1.209
REMARK SMILES CN(C)c1ccc(C(=C2C=CC(=[N+](C)C)C=C2)c2ccccc2)cc1
REMARK SMILES IDX 8 1 9 2 10 3 11 4 12 5 13 6 14 7 15 8 16 9 17 10 7 11 4 12
REMARK SMILES IDX 5 13 25 14 6 15 24 16 2 17 1 18 3 19 18 20 19 21 23 22 20 23
REMARK SMILES IDX 22 24 21 25
REMARK H PARENT
REMARK Flexibility Score: inf
ROOT
ATOM      1  C   UNL     1      31.125  -7.440 -20.935  1.00  0.00    -0.004 C 
ATOM      2  C   UNL     1      31.126  -6.797 -22.135  1.00  0.00    -0.017 C 
ATOM      3  C   UNL     1      29.878  -6.235 -22.715  1.00  0.00     0.015 C 
ATOM      4  C   UNL     1      29.876  -5.603 -23.891  1.00  0.00     0.079 C 
ATOM      5  C   UNL     1      31.126  -5.430 -24.689  1.00  0.00     0.199 C 
ATOM      6  N   UNL     1      31.127  -4.805 -25.856  1.00  0.00    -0.235 N 
ATOM      7  C   UNL     1      29.886  -4.250 -26.426  1.00  0.00     0.433 C 
ATOM      8  C   UNL     1      32.368  -4.639 -26.634  1.00  0.00     0.433 C 
ATOM      9  C   UNL     1      32.377  -5.999 -24.102  1.00  0.00     0.079 C 
ATOM     10  C   UNL     1      32.375  -6.627 -22.924  1.00  0.00     0.015 C 
ENDROOT
BRANCH   1  11
ATOM     11  C   UNL     1      29.865  -7.796 -20.237  1.00  0.00    -0.017 A 
ATOM     12  C   UNL     1      27.420  -8.443 -18.969  1.00  0.00     0.036 A 
ATOM     13  C   UNL     1      28.132  -7.278 -18.616  1.00  0.00     0.026 A 
ATOM     14  C   UNL     1      27.954  -9.271 -19.980  1.00  0.00     0.026 A 
ATOM     15  C   UNL     1      29.336  -6.957 -19.248  1.00  0.00     0.011 A 
ATOM     16  C   UNL     1      29.158  -8.947 -20.608  1.00  0.00     0.011 A 
BRANCH  12  17
ATOM     17  N   UNL     1      26.168  -8.779 -18.314  1.00  0.00    -0.378 N 
ATOM     18  C   UNL     1      25.891  -8.311 -16.950  1.00  0.00     0.143 C 
ATOM     19  C   UNL     1      25.159  -9.591 -19.004  1.00  0.00     0.143 C 
ENDBRANCH  12  17
ENDBRANCH   1  11
BRANCH   1  20
ATOM     20  C   UNL     1      32.384  -7.824 -20.250  1.00  0.00    -0.017 A 
ATOM     21  C   UNL     1      33.177  -6.852 -19.615  1.00  0.00     0.009 A 
ATOM     22  C   UNL     1      32.760  -9.175 -20.175  1.00  0.00     0.009 A 
ATOM     23  C   UNL     1      34.343  -7.225 -18.942  1.00  0.00     0.001 A 
ATOM     24  C   UNL     1      33.927  -9.544 -19.499  1.00  0.00     0.001 A 
ATOM     25  C   UNL     1      34.720  -8.570 -18.885  1.00  0.00     0.000 A 
ENDBRANCH   1  20
TORSDOF 3
ENDMDL
MODEL 9
REMARK VINA RESULT:    -6.237      2.939      5.165
REMARK INTER + INTRA:          -8.539
REMARK INTER:                  -7.325
REMARK INTRA:                  -1.214
REMARK UNBOUND:                -1.209
REMARK SMILES CN(C)c1ccc(C(=C2C=CC(=[N+](C)C)C=C2)c2ccccc2)cc1
REMARK SMILES IDX 8 1 9 2 10 3 11 4 12 5 13 6 14 7 15 8 16 9 17 10 7 11 4 12
REMARK SMILES IDX 5 13 25 14 6 15 24 16 2 17 1 18 3 19 18 20 19 21 23 22 20 23
REMARK SMILES IDX 22 24 21 25
REMARK H PARENT
REMARK Flexibility Score: inf
ROOT
ATOM      1  C   UNL     1      29.732  -7.841 -21.105  1.00  0.00    -0.004 C 
ATOM      2  C   UNL     1      29.299  -9.112 -21.331  1.00  0.00    -0.017 C 
ATOM      3  C   UNL     1      30.098 -10.291 -20.906  1.00  0.00     0.015 C 
ATOM      4  C   UNL     1      29.675 -11.538 -21.126  1.00  0.00     0.079 C 
ATOM      5  C   UNL     1      28.378 -11.815 -21.811  1.00  0.00     0.199 C 
ATOM      6  N   UNL     1      27.956 -13.051 -22.031  1.00  0.00    -0.235 N 
ATOM      7  C   UNL     1      28.754 -14.217 -21.608  1.00  0.00     0.433 C 
ATOM      8  C   UNL     1      26.673 -13.312 -22.708  1.00  0.00     0.433 C 
ATOM      9  C   UNL     1      27.580 -10.627 -22.237  1.00  0.00     0.079 C 
ATOM     10  C   UNL     1      28.006  -9.381 -22.014  1.00  0.00     0.015 C 
ENDROOT
BRANCH   1  11
ATOM     11  C   UNL     1      31.104  -7.556 -20.614  1.00  0.00    -0.017 A 
ATOM     12  C   UNL     1      33.732  -7.094 -19.676  1.00  0.00     0.036 A 
ATOM     13  C   UNL     1      32.633  -7.073 -18.791  1.00  0.00     0.026 A 
ATOM     14  C   UNL     1      33.486  -7.363 -21.038  1.00  0.00     0.026 A 
ATOM     15  C   UNL     1      31.337  -7.307 -19.255  1.00  0.00     0.011 A 
ATOM     16  C   UNL     1      32.189  -7.597 -21.499  1.00  0.00     0.011 A 
BRANCH  12  17
ATOM     17  N   UNL     1      35.081  -6.850 -19.195  1.00  0.00    -0.378 N 
ATOM     18  C   UNL     1      35.523  -5.487 -18.870  1.00  0.00     0.143 C 
ATOM     19  C   UNL     1      36.024  -7.961 -19.024  1.00  0.00     0.143 C 
ENDBRANCH  12  17
ENDBRANCH   1  11
BRANCH   1  20
ATOM     20  C   UNL     1      28.861  -6.662 -21.335  1.00  0.00    -0.017 A 
ATOM     21  C   UNL     1      28.959  -5.927 -22.530  1.00  0.00     0.009 A 
ATOM     22  C   UNL     1      27.886  -6.311 -20.388  1.00  0.00     0.009 A 
ATOM     23  C   UNL     1      28.111  -4.838 -22.756  1.00  0.00     0.001 A 
ATOM     24  C   UNL     1      27.040  -5.223 -20.619  1.00  0.00     0.001 A 
ATOM     25  C   UNL     1      27.154  -4.484 -21.800  1.00  0.00     0.000 A 
ENDBRANCH   1  20
TORSDOF 3
ENDMDL
MODEL 10
REMARK VINA RESULT:    -6.054      2.652      8.021
REMARK INTER + INTRA:          -8.324
REMARK INTER:                  -7.096
REMARK INTRA:                  -1.228
REMARK UNBOUND:                -1.209
REMARK SMILES CN(C)c1ccc(C(=C2C=CC(=[N+](C)C)C=C2)c2ccccc2)cc1
REMARK SMILES IDX 8 1 9 2 10 3 11 4 12 5 13 6 14 7 15 8 16 9 17 10 7 11 4 12
REMARK SMILES IDX 5 13 25 14 6 15 24 16 2 17 1 18 3 19 18 20 19 21 23 22 20 23
REMARK SMILES IDX 22 24 21 25
REMARK H PARENT
REMARK Flexibility Score: inf
ROOT
ATOM      1  C   UNL     1      31.759  -6.602 -21.756  1.00  0.00    -0.004 C 
ATOM      2  C   UNL     1      32.830  -7.073 -21.060  1.00  0.00    -0.017 C 
ATOM      3  C   UNL     1      32.687  -8.163 -20.060  1.00  0.00     0.015 C 
ATOM      4  C   UNL     1      33.736  -8.627 -19.377  1.00  0.00     0.079 C 
ATOM      5  C   UNL     1      35.109  -8.075 -19.580  1.00  0.00     0.199 C 
ATOM      6  N   UNL     1      36.151  -8.533 -18.904  1.00  0.00    -0.235 N 
ATOM      7  C   UNL     1      36.003  -9.614 -17.913  1.00  0.00     0.433 C 
ATOM      8  C   UNL     1      37.501  -7.981 -19.114  1.00  0.00     0.433 C 
ATOM      9  C   UNL     1      35.246  -6.979 -20.586  1.00  0.00     0.079 C 
ATOM     10  C   UNL     1      34.194  -6.519 -21.268  1.00  0.00     0.015 C 
ENDROOT
BRANCH   1  11
ATOM     11  C   UNL     1      30.369  -6.996 -21.417  1.00  0.00    -0.017 A 
ATOM     12  C   UNL     1      27.748  -7.786 -20.703  1.00  0.00     0.036 A 
ATOM     13  C   UNL     1      28.496  -8.526 -21.642  1.00  0.00     0.026 A 
ATOM     14  C   UNL     1      28.346  -6.649 -20.120  1.00  0.00     0.026 A 
ATOM     15  C   UNL     1      29.792  -8.138 -21.989  1.00  0.00     0.011 A 
ATOM     16  C   UNL     1      29.642  -6.263 -20.470  1.00  0.00     0.011 A 
BRANCH  12  17
ATOM     17  N   UNL     1      26.400  -8.188 -20.341  1.00  0.00    -0.378 N 
ATOM     18  C   UNL     1      26.177  -9.280 -19.385  1.00  0.00     0.143 C 
ATOM     19  C   UNL     1      25.237  -7.508 -20.925  1.00  0.00     0.143 C 
ENDBRANCH  12  17
ENDBRANCH   1  11
BRANCH   1  20
ATOM     20  C   UNL     1      31.913  -5.664 -22.896  1.00  0.00    -0.017 A 
ATOM     21  C   UNL     1      32.016  -6.151 -24.211  1.00  0.00     0.009 A 
ATOM     22  C   UNL     1      31.892  -4.278 -22.674  1.00  0.00     0.009 A 
ATOM     23  C   UNL     1      32.127  -5.262 -25.283  1.00  0.00     0.001 A 
ATOM     24  C   UNL     1      32.001  -3.392 -23.751  1.00  0.00     0.001 A 
ATOM     25  C   UNL     1      32.122  -3.882 -25.054  1.00  0.00     0.000 A 
ENDBRANCH   1  20
TORSDOF 3
ENDMDL
MODEL 11
REMARK VINA RESULT:    -5.962      2.544      7.496
REMARK INTER + INTRA:          -8.216
REMARK INTER:                  -6.976
REMARK INTRA:                  -1.240
REMARK UNBOUND:                -1.209
REMARK SMILES CN(C)c1ccc(C(=C2C=CC(=[N+](C)C)C=C2)c2ccccc2)cc1
REMARK SMILES IDX 8 1 9 2 10 3 11 4 12 5 13 6 14 7 15 8 16 9 17 10 7 11 4 12
REMARK SMILES IDX 5 13 25 14 6 15 24 16 2 17 1 18 3 19 18 20 19 21 23 22 20 23
REMARK SMILES IDX 22 24 21 25
REMARK H PARENT
REMARK Flexibility Score: inf
ROOT
ATOM      1  C   UNL     1      29.573  -6.330 -22.437  1.00  0.00    -0.004 C 
ATOM      2  C   UNL     1      28.812  -6.949 -21.492  1.00  0.00    -0.017 C 
ATOM      3  C   UNL     1      27.462  -7.483 -21.809  1.00  0.00     0.015 C 
ATOM      4  C   UNL     1      26.716  -8.091 -20.884  1.00  0.00     0.079 C 
ATOM      5  C   UNL     1      27.196  -8.265 -19.481  1.00  0.00     0.199 C 
ATOM      6  N   UNL     1      26.457  -8.867 -18.562  1.00  0.00    -0.235 N 
ATOM      7  C   UNL     1      25.118  -9.394 -18.882  1.00  0.00     0.433 C 
ATOM      8  C   UNL     1      26.943  -9.035 -17.180  1.00  0.00     0.433 C 
ATOM      9  C   UNL     1      28.553  -7.725 -19.167  1.00  0.00     0.079 C 
ATOM     10  C   UNL     1      29.298  -7.120 -20.096  1.00  0.00     0.015 C 
ENDROOT
BRANCH   1  11
ATOM     11  C   UNL     1      29.027  -5.970 -23.769  1.00  0.00    -0.017 A 
ATOM     12  C   UNL     1      27.912  -5.311 -26.284  1.00  0.00     0.036 A 
ATOM     13  C   UNL     1      28.605  -6.525 -26.095  1.00  0.00     0.026 A 
ATOM     14  C   UNL     1      27.779  -4.440 -25.182  1.00  0.00     0.026 A 
ATOM     15  C   UNL     1      29.149  -6.851 -24.852  1.00  0.00     0.011 A 
ATOM     16  C   UNL     1      28.326  -4.769 -23.940  1.00  0.00     0.011 A 
BRANCH  12  17
ATOM     17  N   UNL     1      27.346  -4.969 -27.577  1.00  0.00    -0.378 N 
ATOM     18  C   UNL     1      26.089  -4.214 -27.666  1.00  0.00     0.143 C 
ATOM     19  C   UNL     1      28.020  -5.372 -28.817  1.00  0.00     0.143 C 
ENDBRANCH  12  17
ENDBRANCH   1  11
BRANCH   1  20
ATOM     20  C   UNL     1      30.993  -5.976 -22.194  1.00  0.00    -0.017 A 
ATOM     21  C   UNL     1      31.338  -4.699 -21.718  1.00  0.00     0.009 A 
ATOM     22  C   UNL     1      31.999  -6.938 -22.377  1.00  0.00     0.009 A 
ATOM     23  C   UNL     1      32.675  -4.384 -21.457  1.00  0.00     0.001 A 
ATOM     24  C   UNL     1      33.334  -6.618 -22.115  1.00  0.00     0.001 A 
ATOM     25  C   UNL     1      33.673  -5.341 -21.658  1.00  0.00     0.000 A 
ENDBRANCH   1  20
TORSDOF 3
ENDMDL
MODEL 12
REMARK VINA RESULT:    -5.827      2.109      3.039
REMARK INTER + INTRA:          -8.057
REMARK INTER:                  -6.841
REMARK INTRA:                  -1.216
REMARK UNBOUND:                -1.209
REMARK SMILES CN(C)c1ccc(C(=C2C=CC(=[N+](C)C)C=C2)c2ccccc2)cc1
REMARK SMILES IDX 8 1 9 2 10 3 11 4 12 5 13 6 14 7 15 8 16 9 17 10 7 11 4 12
REMARK SMILES IDX 5 13 25 14 6 15 24 16 2 17 1 18 3 19 18 20 19 21 23 22 20 23
REMARK SMILES IDX 22 24 21 25
REMARK H PARENT
REMARK Flexibility Score: inf
ROOT
ATOM      1  C   UNL     1      29.787  -6.936 -22.147  1.00  0.00    -0.004 C 
ATOM      2  C   UNL     1      29.236  -6.336 -23.238  1.00  0.00    -0.017 C 
ATOM      3  C   UNL     1      30.061  -5.548 -24.189  1.00  0.00     0.015 C 
ATOM      4  C   UNL     1      29.523  -4.959 -25.260  1.00  0.00     0.079 C 
ATOM      5  C   UNL     1      28.063  -5.059 -25.557  1.00  0.00     0.199 C 
ATOM      6  N   UNL     1      27.526  -4.475 -26.618  1.00  0.00    -0.235 N 
ATOM      7  C   UNL     1      28.350  -3.694 -27.558  1.00  0.00     0.433 C 
ATOM      8  C   UNL     1      26.083  -4.582 -26.901  1.00  0.00     0.433 C 
ATOM      9  C   UNL     1      27.238  -5.851 -24.596  1.00  0.00     0.079 C 
ATOM     10  C   UNL     1      27.781  -6.440 -23.528  1.00  0.00     0.015 C 
ENDROOT
BRANCH   1  11
ATOM     11  C   UNL     1      31.188  -6.674 -21.732  1.00  0.00    -0.017 A 
ATOM     12  C   UNL     1      33.868  -6.129 -21.010  1.00  0.00     0.036 A 
ATOM     13  C   UNL     1      33.524  -7.332 -21.660  1.00  0.00     0.026 A 
ATOM     14  C   UNL     1      32.841  -5.199 -20.740  1.00  0.00     0.026 A 
ATOM     15  C   UNL     1      32.202  -7.597 -22.021  1.00  0.00     0.011 A 
ATOM     16  C   UNL     1      31.519  -5.468 -21.102  1.00  0.00     0.011 A 
BRANCH  12  17
ATOM     17  N   UNL     1      35.243  -5.851 -20.633  1.00  0.00    -0.378 N 
ATOM     18  C   UNL     1      36.308  -6.816 -20.933  1.00  0.00     0.143 C 
ATOM     19  C   UNL     1      35.591  -4.602 -19.945  1.00  0.00     0.143 C 
ENDBRANCH  12  17
ENDBRANCH   1  11
BRANCH   1  20
ATOM     20  C   UNL     1      29.023  -7.889 -21.305  1.00  0.00    -0.017 A 
ATOM     21  C   UNL     1      28.431  -7.463 -20.103  1.00  0.00     0.009 A 
ATOM     22  C   UNL     1      28.830  -9.212 -21.736  1.00  0.00     0.009 A 
ATOM     23  C   UNL     1      27.682  -8.356 -19.332  1.00  0.00     0.001 A 
ATOM     24  C   UNL     1      28.079 -10.101 -20.962  1.00  0.00     0.001 A 
ATOM     25  C   UNL     1      27.508  -9.676 -19.759  1.00  0.00     0.000 A 
ENDBRANCH   1  20
TORSDOF 3
ENDMDL
MODEL 13
REMARK VINA RESULT:    -5.625      2.696      5.558
REMARK INTER + INTRA:          -7.821
REMARK INTER:                  -6.608
REMARK INTRA:                  -1.213
REMARK UNBOUND:                -1.209
REMARK SMILES CN(C)c1ccc(C(=C2C=CC(=[N+](C)C)C=C2)c2ccccc2)cc1
REMARK SMILES IDX 8 1 9 2 10 3 11 4 12 5 13 6 14 7 15 8 16 9 17 10 7 11 4 12
REMARK SMILES IDX 5 13 25 14 6 15 24 16 2 17 1 18 3 19 18 20 19 21 23 22 20 23
REMARK SMILES IDX 22 24 21 25
REMARK H PARENT
REMARK Flexibility Score: inf
ROOT
ATOM      1  C   UNL     1      28.871  -5.976 -22.591  1.00  0.00    -0.004 C 
ATOM      2  C   UNL     1      28.251  -5.416 -23.666  1.00  0.00    -0.017 C 
ATOM      3  C   UNL     1      26.771  -5.292 -23.730  1.00  0.00     0.015 C 
ATOM      4  C   UNL     1      26.161  -4.743 -24.783  1.00  0.00     0.079 C 
ATOM      5  C   UNL     1      26.932  -4.225 -25.952  1.00  0.00     0.199 C 
ATOM      6  N   UNL     1      26.329  -3.680 -26.998  1.00  0.00    -0.235 N 
ATOM      7  C   UNL     1      24.861  -3.561 -27.056  1.00  0.00     0.433 C 
ATOM      8  C   UNL     1      27.101  -3.171 -28.146  1.00  0.00     0.433 C 
ATOM      9  C   UNL     1      28.418  -4.353 -25.883  1.00  0.00     0.079 C 
ATOM     10  C   UNL     1      29.025  -4.901 -24.827  1.00  0.00     0.015 C 
ENDROOT
BRANCH   1  11
ATOM     11  C   UNL     1      28.112  -6.675 -21.524  1.00  0.00    -0.017 A 
ATOM     12  C   UNL     1      26.737  -8.028 -19.455  1.00  0.00     0.036 A 
ATOM     13  C   UNL     1      26.980  -8.657 -20.694  1.00  0.00     0.026 A 
ATOM     14  C   UNL     1      27.209  -6.712 -19.271  1.00  0.00     0.026 A 
ATOM     15  C   UNL     1      27.665  -7.990 -21.712  1.00  0.00     0.011 A 
ATOM     16  C   UNL     1      27.892  -6.047 -20.291  1.00  0.00     0.011 A 
BRANCH  12  17
ATOM     17  N   UNL     1      26.026  -8.721 -18.395  1.00  0.00    -0.378 N 
ATOM     18  C   UNL     1      25.095  -9.813 -18.710  1.00  0.00     0.143 C 
ATOM     19  C   UNL     1      26.225  -8.342 -16.991  1.00  0.00     0.143 C 
ENDBRANCH  12  17
ENDBRANCH   1  11
BRANCH   1  20
ATOM     20  C   UNL     1      30.344  -5.923 -22.418  1.00  0.00    -0.017 A 
ATOM     21  C   UNL     1      30.937  -4.897 -21.661  1.00  0.00     0.009 A 
ATOM     22  C   UNL     1      31.152  -6.937 -22.957  1.00  0.00     0.009 A 
ATOM     23  C   UNL     1      32.322  -4.873 -21.473  1.00  0.00     0.001 A 
ATOM     24  C   UNL     1      32.537  -6.908 -22.766  1.00  0.00     0.001 A 
ATOM     25  C   UNL     1      33.122  -5.876 -22.027  1.00  0.00     0.000 A 
ENDBRANCH   1  20
TORSDOF 3
ENDMDL
MODEL 14
REMARK VINA RESULT:    -5.604      2.594      5.601
REMARK INTER + INTRA:          -7.796
REMARK INTER:                  -6.608
REMARK INTRA:                  -1.188
REMARK UNBOUND:                -1.209
REMARK SMILES CN(C)c1ccc(C(=C2C=CC(=[N+](C)C)C=C2)c2ccccc2)cc1
REMARK SMILES IDX 8 1 9 2 10 3 11 4 12 5 13 6 14 7 15 8 16 9 17 10 7 11 4 12
REMARK SMILES IDX 5 13 25 14 6 15 24 16 2 17 1 18 3 19 18 20 19 21 23 22 20 23
REMARK SMILES IDX 22 24 21 25
REMARK H PARENT
REMARK Flexibility Score: inf
ROOT
ATOM      1  C   UNL     1      31.518  -6.434 -21.567  1.00  0.00    -0.004 C 
ATOM      2  C   UNL     1      30.257  -6.784 -21.190  1.00  0.00    -0.017 C 
ATOM      3  C   UNL     1      29.991  -7.439 -19.883  1.00  0.00     0.015 C 
ATOM      4  C   UNL     1      28.756  -7.782 -19.512  1.00  0.00     0.079 C 
ATOM      5  C   UNL     1      27.575  -7.528 -20.390  1.00  0.00     0.199 C 
ATOM      6  N   UNL     1      26.349  -7.868 -20.024  1.00  0.00    -0.235 N 
ATOM      7  C   UNL     1      26.091  -8.518 -18.727  1.00  0.00     0.433 C 
ATOM      8  C   UNL     1      25.191  -7.611 -20.900  1.00  0.00     0.433 C 
ATOM      9  C   UNL     1      27.848  -6.871 -21.703  1.00  0.00     0.079 C 
ATOM     10  C   UNL     1      29.086  -6.528 -22.070  1.00  0.00     0.015 C 
ENDROOT
BRANCH   1  11
ATOM     11  C   UNL     1      32.713  -6.865 -20.799  1.00  0.00    -0.017 A 
ATOM     12  C   UNL     1      35.039  -7.649 -19.393  1.00  0.00     0.036 A 
ATOM     13  C   UNL     1      34.386  -8.543 -20.267  1.00  0.00     0.026 A 
ATOM     14  C   UNL     1      34.509  -6.349 -19.249  1.00  0.00     0.026 A 
ATOM     15  C   UNL     1      33.241  -8.152 -20.965  1.00  0.00     0.011 A 
ATOM     16  C   UNL     1      33.363  -5.962 -19.948  1.00  0.00     0.011 A 
BRANCH  12  17
ATOM     17  N   UNL     1      36.229  -8.053 -18.666  1.00  0.00    -0.378 N 
ATOM     18  C   UNL     1      37.384  -7.151 -18.562  1.00  0.00     0.143 C 
ATOM     19  C   UNL     1      36.299  -9.370 -18.021  1.00  0.00     0.143 C 
ENDBRANCH  12  17
ENDBRANCH   1  11
BRANCH   1  20
ATOM     20  C   UNL     1      31.776  -5.602 -22.768  1.00  0.00    -0.017 A 
ATOM     21  C   UNL     1      31.892  -6.197 -24.036  1.00  0.00     0.009 A 
ATOM     22  C   UNL     1      31.843  -4.204 -22.654  1.00  0.00     0.009 A 
ATOM     23  C   UNL     1      32.100  -5.405 -25.169  1.00  0.00     0.001 A 
ATOM     24  C   UNL     1      32.050  -3.416 -23.790  1.00  0.00     0.001 A 
ATOM     25  C   UNL     1      32.182  -4.014 -25.046  1.00  0.00     0.000 A 
ENDBRANCH   1  20
TORSDOF 3
ENDMDL
MODEL 15
REMARK VINA RESULT:    -5.107      2.837      6.265
REMARK INTER + INTRA:          -7.211
REMARK INTER:                  -6.793
REMARK INTRA:                  -0.418
REMARK UNBOUND:                -1.209
REMARK SMILES CN(C)c1ccc(C(=C2C=CC(=[N+](C)C)C=C2)c2ccccc2)cc1
REMARK SMILES IDX 8 1 9 2 10 3 11 4 12 5 13 6 14 7 15 8 16 9 17 10 7 11 4 12
REMARK SMILES IDX 5 13 25 14 6 15 24 16 2 17 1 18 3 19 18 20 19 21 23 22 20 23
REMARK SMILES IDX 22 24 21 25
REMARK H PARENT
REMARK Flexibility Score: inf
ROOT
ATOM      1  C   UNL     1      29.346  -7.269 -20.819  1.00  0.00    -0.004 C 
ATOM      2  C   UNL     1      30.423  -6.914 -20.065  1.00  0.00    -0.017 C 
ATOM      3  C   UNL     1      31.442  -7.912 -19.649  1.00  0.00     0.015 C 
ATOM      4  C   UNL     1      32.499  -7.566 -18.910  1.00  0.00     0.079 C 
ATOM      5  C   UNL     1      32.712  -6.158 -18.460  1.00  0.00     0.199 C 
ATOM      6  N   UNL     1      33.759  -5.813 -17.726  1.00  0.00    -0.235 N 
ATOM      7  C   UNL     1      34.766  -6.808 -17.316  1.00  0.00     0.433 C 
ATOM      8  C   UNL     1      33.960  -4.419 -17.289  1.00  0.00     0.433 C 
ATOM      9  C   UNL     1      31.684  -5.160 -18.879  1.00  0.00     0.079 C 
ATOM     10  C   UNL     1      30.630  -5.510 -19.620  1.00  0.00     0.015 C 
ENDROOT
BRANCH   1  11
ATOM     11  C   UNL     1      29.017  -8.689 -21.096  1.00  0.00    -0.017 A 
ATOM     12  C   UNL     1      28.387 -11.411 -21.542  1.00  0.00     0.036 A 
ATOM     13  C   UNL     1      29.723 -10.959 -21.592  1.00  0.00     0.026 A 
ATOM     14  C   UNL     1      27.376 -10.471 -21.251  1.00  0.00     0.026 A 
ATOM     15  C   UNL     1      30.032  -9.617 -21.366  1.00  0.00     0.011 A 
ATOM     16  C   UNL     1      27.689  -9.129 -21.026  1.00  0.00     0.011 A 
BRANCH  12  17
ATOM     17  N   UNL     1      28.063 -12.807 -21.777  1.00  0.00    -0.378 N 
ATOM     18  C   UNL     1      28.903 -13.873 -21.217  1.00  0.00     0.143 C 
ATOM     19  C   UNL     1      26.889 -13.175 -22.578  1.00  0.00     0.143 C 
ENDBRANCH  12  17
ENDBRANCH   1  11
BRANCH   1  20
ATOM     20  C   UNL     1      28.435  -6.258 -21.411  1.00  0.00    -0.017 A 
ATOM     21  C   UNL     1      28.602  -5.840 -22.742  1.00  0.00     0.009 A 
ATOM     22  C   UNL     1      27.355  -5.761 -20.663  1.00  0.00     0.009 A 
ATOM     23  C   UNL     1      27.719  -4.914 -23.305  1.00  0.00     0.001 A 
ATOM     24  C   UNL     1      26.474  -4.836 -21.230  1.00  0.00     0.001 A 
ATOM     25  C   UNL     1      26.656  -4.410 -22.549  1.00  0.00     0.000 A 
ENDBRANCH   1  20
TORSDOF 3
ENDMDL
MODEL 16
REMARK VINA RESULT:    -5.041     27.217     29.962
REMARK INTER + INTRA:          -7.134
REMARK INTER:                  -6.555
REMARK INTRA:                  -0.578
REMARK UNBOUND:                -1.209
REMARK SMILES CN(C)c1ccc(C(=C2C=CC(=[N+](C)C)C=C2)c2ccccc2)cc1
REMARK SMILES IDX 8 1 9 2 10 3 11 4 12 5 13 6 14 7 15 8 16 9 17 10 7 11 4 12
REMARK SMILES IDX 5 13 25 14 6 15 24 16 2 17 1 18 3 19 18 20 19 21 23 22 20 23
REMARK SMILES IDX 22 24 21 25
REMARK H PARENT
REMARK Flexibility Score: inf
ROOT
ATOM      1  C   UNL     1       9.469 -26.716 -31.725  1.00  0.00    -0.004 C 
ATOM      2  C   UNL     1       9.472 -27.513 -32.829  1.00  0.00    -0.017 C 
ATOM      3  C   UNL     1       9.682 -26.953 -34.189  1.00  0.00     0.015 C 
ATOM      4  C   UNL     1       9.686 -27.733 -35.273  1.00  0.00     0.079 C 
ATOM      5  C   UNL     1       9.478 -29.209 -35.176  1.00  0.00     0.199 C 
ATOM      6  N   UNL     1       9.481 -29.984 -36.250  1.00  0.00    -0.235 N 
ATOM      7  C   UNL     1       9.689 -29.423 -37.597  1.00  0.00     0.433 C 
ATOM      8  C   UNL     1       9.276 -31.440 -36.141  1.00  0.00     0.433 C 
ATOM      9  C   UNL     1       9.266 -29.766 -33.807  1.00  0.00     0.079 C 
ATOM     10  C   UNL     1       9.265 -28.982 -32.725  1.00  0.00     0.015 C 
ENDROOT
BRANCH   1  11
ATOM     11  C   UNL     1       9.468 -25.235 -31.827  1.00  0.00    -0.017 A 
ATOM     12  C   UNL     1       9.528 -22.410 -31.967  1.00  0.00     0.036 A 
ATOM     13  C   UNL     1       8.586 -23.075 -31.154  1.00  0.00     0.026 A 
ATOM     14  C   UNL     1      10.447 -23.191 -32.698  1.00  0.00     0.026 A 
ATOM     15  C   UNL     1       8.562 -24.469 -31.081  1.00  0.00     0.011 A 
ATOM     16  C   UNL     1      10.419 -24.586 -32.624  1.00  0.00     0.011 A 
BRANCH  12  17
ATOM     17  N   UNL     1       9.554 -20.960 -32.043  1.00  0.00    -0.378 N 
ATOM     18  C   UNL     1       9.098 -20.144 -30.911  1.00  0.00     0.143 C 
ATOM     19  C   UNL     1      10.037 -20.286 -33.254  1.00  0.00     0.143 C 
ENDBRANCH  12  17
ENDBRANCH   1  11
BRANCH   1  20
ATOM     20  C   UNL     1       9.465 -27.277 -30.351  1.00  0.00    -0.017 A 
ATOM     21  C   UNL     1       8.252 -27.509 -29.679  1.00  0.00     0.009 A 
ATOM     22  C   UNL     1      10.674 -27.641 -29.737  1.00  0.00     0.009 A 
ATOM     23  C   UNL     1       8.254 -28.071 -28.399  1.00  0.00     0.001 A 
ATOM     24  C   UNL     1      10.670 -28.203 -28.456  1.00  0.00     0.001 A 
ATOM     25  C   UNL     1       9.463 -28.415 -27.786  1.00  0.00     0.000 A 
ENDBRANCH   1  20
TORSDOF 3
ENDMDL
MODEL 17
REMARK VINA RESULT:    -5.026      2.928      6.774
REMARK INTER + INTRA:          -7.116
REMARK INTER:                  -5.930
REMARK INTRA:                  -1.185
REMARK UNBOUND:                -1.209
REMARK SMILES CN(C)c1ccc(C(=C2C=CC(=[N+](C)C)C=C2)c2ccccc2)cc1
REMARK SMILES IDX 8 1 9 2 10 3 11 4 12 5 13 6 14 7 15 8 16 9 17 10 7 11 4 12
REMARK SMILES IDX 5 13 25 14 6 15 24 16 2 17 1 18 3 19 18 20 19 21 23 22 20 23
REMARK SMILES IDX 22 24 21 25
REMARK H PARENT
REMARK Flexibility Score: inf
ROOT
ATOM      1  C   UNL     1      30.011  -6.065 -21.919  1.00  0.00    -0.004 C 
ATOM      2  C   UNL     1      31.198  -5.568 -21.471  1.00  0.00    -0.017 C 
ATOM      3  C   UNL     1      31.700  -5.871 -20.105  1.00  0.00     0.015 C 
ATOM      4  C   UNL     1      32.863  -5.385 -19.665  1.00  0.00     0.079 C 
ATOM      5  C   UNL     1      33.720  -4.511 -20.519  1.00  0.00     0.199 C 
ATOM      6  N   UNL     1      34.873  -4.027 -20.085  1.00  0.00    -0.235 N 
ATOM      7  C   UNL     1      35.366  -4.330 -18.729  1.00  0.00     0.433 C 
ATOM      8  C   UNL     1      35.712  -3.166 -20.938  1.00  0.00     0.433 C 
ATOM      9  C   UNL     1      33.210  -4.209 -21.890  1.00  0.00     0.079 C 
ATOM     10  C   UNL     1      32.047  -4.699 -22.328  1.00  0.00     0.015 C 
ENDROOT
BRANCH   1  11
ATOM     11  C   UNL     1      29.061  -6.759 -21.014  1.00  0.00    -0.017 A 
ATOM     12  C   UNL     1      27.205  -8.104 -19.356  1.00  0.00     0.036 A 
ATOM     13  C   UNL     1      27.118  -6.711 -19.558  1.00  0.00     0.026 A 
ATOM     14  C   UNL     1      28.234  -8.811 -20.013  1.00  0.00     0.026 A 
ATOM     15  C   UNL     1      28.031  -6.050 -20.382  1.00  0.00     0.011 A 
ATOM     16  C   UNL     1      29.147  -8.146 -20.835  1.00  0.00     0.011 A 
BRANCH  12  17
ATOM     17  N   UNL     1      26.256  -8.794 -18.500  1.00  0.00    -0.378 N 
ATOM     18  C   UNL     1      26.340  -8.668 -17.039  1.00  0.00     0.143 C 
ATOM     19  C   UNL     1      25.197  -9.629 -19.080  1.00  0.00     0.143 C 
ENDBRANCH  12  17
ENDBRANCH   1  11
BRANCH   1  20
ATOM     20  C   UNL     1      29.594  -5.944 -23.337  1.00  0.00    -0.017 A 
ATOM     21  C   UNL     1      29.005  -4.758 -23.808  1.00  0.00     0.009 A 
ATOM     22  C   UNL     1      29.846  -6.993 -24.237  1.00  0.00     0.009 A 
ATOM     23  C   UNL     1      28.647  -4.637 -25.154  1.00  0.00     0.001 A 
ATOM     24  C   UNL     1      29.486  -6.866 -25.582  1.00  0.00     0.001 A 
ATOM     25  C   UNL     1      28.885  -5.691 -26.040  1.00  0.00     0.000 A 
ENDBRANCH   1  20
TORSDOF 3
ENDMDL
MODEL 18
REMARK VINA RESULT:    -4.814     13.070     17.003
REMARK INTER + INTRA:          -6.866
REMARK INTER:                  -6.253
REMARK INTRA:                  -0.613
REMARK UNBOUND:                -1.209
REMARK SMILES CN(C)c1ccc(C(=C2C=CC(=[N+](C)C)C=C2)c2ccccc2)cc1
REMARK SMILES IDX 8 1 9 2 10 3 11 4 12 5 13 6 14 7 15 8 16 9 17 10 7 11 4 12
REMARK SMILES IDX 5 13 25 14 6 15 24 16 2 17 1 18 3 19 18 20 19 21 23 22 20 23
REMARK SMILES IDX 22 24 21 25
REMARK H PARENT
REMARK Flexibility Score: inf
ROOT
ATOM      1  C   UNL     1      16.772  -8.521 -30.407  1.00  0.00    -0.004 C 
ATOM      2  C   UNL     1      17.662  -7.535 -30.707  1.00  0.00    -0.017 C 
ATOM      3  C   UNL     1      17.229  -6.272 -31.360  1.00  0.00     0.015 C 
ATOM      4  C   UNL     1      18.099  -5.303 -31.653  1.00  0.00     0.079 C 
ATOM      5  C   UNL     1      19.554  -5.437 -31.343  1.00  0.00     0.199 C 
ATOM      6  N   UNL     1      20.419  -4.477 -31.634  1.00  0.00    -0.235 N 
ATOM      7  C   UNL     1      19.984  -3.227 -32.283  1.00  0.00     0.433 C 
ATOM      8  C   UNL     1      21.852  -4.620 -31.322  1.00  0.00     0.433 C 
ATOM      9  C   UNL     1      19.983  -6.709 -30.688  1.00  0.00     0.079 C 
ATOM     10  C   UNL     1      19.109  -7.674 -30.394  1.00  0.00     0.015 C 
ENDROOT
BRANCH   1  11
ATOM     11  C   UNL     1      15.370  -8.487 -30.893  1.00  0.00    -0.017 A 
ATOM     12  C   UNL     1      12.715  -8.351 -31.860  1.00  0.00     0.036 A 
ATOM     13  C   UNL     1      13.036  -7.904 -30.560  1.00  0.00     0.026 A 
ATOM     14  C   UNL     1      13.755  -8.855 -32.668  1.00  0.00     0.026 A 
ATOM     15  C   UNL     1      14.349  -7.967 -30.088  1.00  0.00     0.011 A 
ATOM     16  C   UNL     1      15.066  -8.917 -32.192  1.00  0.00     0.011 A 
BRANCH  12  17
ATOM     17  N   UNL     1      11.351  -8.287 -32.353  1.00  0.00    -0.378 N 
ATOM     18  C   UNL     1      11.015  -8.797 -33.689  1.00  0.00     0.143 C 
ATOM     19  C   UNL     1      10.284  -7.712 -31.525  1.00  0.00     0.143 C 
ENDBRANCH  12  17
ENDBRANCH   1  11
BRANCH   1  20
ATOM     20  C   UNL     1      17.148  -9.692 -29.577  1.00  0.00    -0.017 A 
ATOM     21  C   UNL     1      16.706 -10.982 -29.921  1.00  0.00     0.009 A 
ATOM     22  C   UNL     1      18.005  -9.529 -28.477  1.00  0.00     0.009 A 
ATOM     23  C   UNL     1      17.093 -12.085 -29.156  1.00  0.00     0.001 A 
ATOM     24  C   UNL     1      18.390 -10.636 -27.715  1.00  0.00     0.001 A 
ATOM     25  C   UNL     1      17.933 -11.913 -28.051  1.00  0.00     0.000 A 
ENDBRANCH   1  20
TORSDOF 3
ENDMDL
MODEL 19
REMARK VINA RESULT:    -4.765      3.452      6.277
REMARK INTER + INTRA:          -6.810
REMARK INTER:                  -5.561
REMARK INTRA:                  -1.248
REMARK UNBOUND:                -1.209
REMARK SMILES CN(C)c1ccc(C(=C2C=CC(=[N+](C)C)C=C2)c2ccccc2)cc1
REMARK SMILES IDX 8 1 9 2 10 3 11 4 12 5 13 6 14 7 15 8 16 9 17 10 7 11 4 12
REMARK SMILES IDX 5 13 25 14 6 15 24 16 2 17 1 18 3 19 18 20 19 21 23 22 20 23
REMARK SMILES IDX 22 24 21 25
REMARK H PARENT
REMARK Flexibility Score: inf
ROOT
ATOM      1  C   UNL     1      28.507  -5.052 -24.175  1.00  0.00    -0.004 C 
ATOM      2  C   UNL     1      27.670  -4.710 -25.192  1.00  0.00    -0.017 C 
ATOM      3  C   UNL     1      26.194  -4.826 -25.055  1.00  0.00     0.015 C 
ATOM      4  C   UNL     1      25.371  -4.490 -26.051  1.00  0.00     0.079 C 
ATOM      5  C   UNL     1      25.888  -3.982 -27.356  1.00  0.00     0.199 C 
ATOM      6  N   UNL     1      25.074  -3.649 -28.346  1.00  0.00    -0.235 N 
ATOM      7  C   UNL     1      23.612  -3.767 -28.204  1.00  0.00     0.433 C 
ATOM      8  C   UNL     1      25.597  -3.147 -29.630  1.00  0.00     0.433 C 
ATOM      9  C   UNL     1      27.372  -3.869 -27.489  1.00  0.00     0.079 C 
ATOM     10  C   UNL     1      28.192  -4.204 -26.490  1.00  0.00     0.015 C 
ENDROOT
BRANCH   1  11
ATOM     11  C   UNL     1      28.019  -5.747 -22.958  1.00  0.00    -0.017 A 
ATOM     12  C   UNL     1      27.167  -7.075 -20.609  1.00  0.00     0.036 A 
ATOM     13  C   UNL     1      27.397  -7.791 -21.803  1.00  0.00     0.026 A 
ATOM     14  C   UNL     1      27.385  -5.681 -20.615  1.00  0.00     0.026 A 
ATOM     15  C   UNL     1      27.824  -7.135 -22.959  1.00  0.00     0.011 A 
ATOM     16  C   UNL     1      27.811  -5.028 -21.774  1.00  0.00     0.011 A 
BRANCH  12  17
ATOM     17  N   UNL     1      26.723  -7.755 -19.406  1.00  0.00    -0.378 N 
ATOM     18  C   UNL     1      27.210  -7.333 -18.086  1.00  0.00     0.143 C 
ATOM     19  C   UNL     1      25.778  -8.876 -19.487  1.00  0.00     0.143 C 
ENDBRANCH  12  17
ENDBRANCH   1  11
BRANCH   1  20
ATOM     20  C   UNL     1      29.960  -4.752 -24.219  1.00  0.00    -0.017 A 
ATOM     21  C   UNL     1      30.865  -5.689 -24.747  1.00  0.00     0.009 A 
ATOM     22  C   UNL     1      30.434  -3.501 -23.792  1.00  0.00     0.009 A 
ATOM     23  C   UNL     1      32.228  -5.387 -24.818  1.00  0.00     0.001 A 
ATOM     24  C   UNL     1      31.798  -3.203 -23.866  1.00  0.00     0.001 A 
ATOM     25  C   UNL     1      32.695  -4.145 -24.376  1.00  0.00     0.000 A 
ENDBRANCH   1  20
TORSDOF 3
ENDMDL
MODEL 20
REMARK VINA RESULT:    -4.741     28.568     29.711
REMARK INTER + INTRA:          -6.781
REMARK INTER:                  -5.778
REMARK INTRA:                  -1.003
REMARK UNBOUND:                -1.209
REMARK SMILES CN(C)c1ccc(C(=C2C=CC(=[N+](C)C)C=C2)c2ccccc2)cc1
REMARK SMILES IDX 8 1 9 2 10 3 11 4 12 5 13 6 14 7 15 8 16 9 17 10 7 11 4 12
REMARK SMILES IDX 5 13 25 14 6 15 24 16 2 17 1 18 3 19 18 20 19 21 23 22 20 23
REMARK SMILES IDX 22 24 21 25
REMARK H PARENT
REMARK Flexibility Score: inf
ROOT
ATOM      1  C   UNL     1      19.892 -30.317 -37.398  1.00  0.00    -0.004 C 
ATOM      2  C   UNL     1      18.874 -29.659 -38.018  1.00  0.00    -0.017 C 
ATOM      3  C   UNL     1      19.084 -28.935 -39.298  1.00  0.00     0.015 C 
ATOM      4  C   UNL     1      18.088 -28.289 -39.908  1.00  0.00     0.079 C 
ATOM      5  C   UNL     1      16.709 -28.258 -39.336  1.00  0.00     0.199 C 
ATOM      6  N   UNL     1      15.719 -27.617 -39.938  1.00  0.00    -0.235 N 
ATOM      7  C   UNL     1      15.934 -26.900 -41.208  1.00  0.00     0.433 C 
ATOM      8  C   UNL     1      14.362 -27.595 -39.364  1.00  0.00     0.433 C 
ATOM      9  C   UNL     1      16.503 -28.986 -38.048  1.00  0.00     0.079 C 
ATOM     10  C   UNL     1      17.503 -29.632 -37.442  1.00  0.00     0.015 C 
ENDROOT
BRANCH   1  11
ATOM     11  C   UNL     1      21.300 -30.183 -37.846  1.00  0.00    -0.017 A 
ATOM     12  C   UNL     1      24.009 -29.972 -38.634  1.00  0.00     0.036 A 
ATOM     13  C   UNL     1      23.376 -28.926 -37.929  1.00  0.00     0.026 A 
ATOM     14  C   UNL     1      23.258 -31.130 -38.924  1.00  0.00     0.026 A 
ATOM     15  C   UNL     1      22.041 -29.035 -37.536  1.00  0.00     0.011 A 
ATOM     16  C   UNL     1      21.923 -31.235 -38.530  1.00  0.00     0.011 A 
BRANCH  12  17
ATOM     17  N   UNL     1      25.397 -29.860 -39.044  1.00  0.00    -0.378 N 
ATOM     18  C   UNL     1      26.046 -30.948 -39.789  1.00  0.00     0.143 C 
ATOM     19  C   UNL     1      26.176 -28.658 -38.723  1.00  0.00     0.143 C 
ENDBRANCH  12  17
ENDBRANCH   1  11
BRANCH   1  20
ATOM     20  C   UNL     1      19.657 -31.210 -36.236  1.00  0.00    -0.017 A 
ATOM     21  C   UNL     1      20.264 -30.941 -34.996  1.00  0.00     0.009 A 
ATOM     22  C   UNL     1      18.772 -32.294 -36.348  1.00  0.00     0.009 A 
ATOM     23  C   UNL     1      20.011 -31.765 -33.896  1.00  0.00     0.001 A 
ATOM     24  C   UNL     1      18.522 -33.115 -35.245  1.00  0.00     0.001 A 
ATOM     25  C   UNL     1      19.142 -32.853 -34.020  1.00  0.00     0.000 A 
ENDBRANCH   1  20
TORSDOF 3
ENDMDL
